   80   80  997    2
  0.1137897E+02  0.1057479E-08  0.1057479E-08  0.1057479E-08  0.1500000E-16
  1.000000000000000E-004
  CAR 
 unknown system                          
    576      2    384
 
  0.2500000E+00  0.2500000E+00  0.2500000E+00  0.2500000E+00
    1      -19.501131    -19.501131   1.000000   1.000000
    2      -19.500786    -19.500786   1.000000   1.000000
    3      -19.500543    -19.500542   1.000000   1.000000
    4      -19.497643    -19.497644   1.000000   1.000000
    5      -19.444869    -19.444869   1.000000   1.000000
    6      -19.443616    -19.443615   1.000000   1.000000
    7      -19.443007    -19.443006   1.000000   1.000000
    8      -19.439194    -19.439194   1.000000   1.000000
    9      -19.408524    -19.408524   1.000000   1.000000
   10      -19.408164    -19.408164   1.000000   1.000000
   11      -19.407466    -19.407466   1.000000   1.000000
   12      -19.405798    -19.405799   1.000000   1.000000
   13      -19.389249    -19.389248   1.000000   1.000000
   14      -19.388996    -19.388996   1.000000   1.000000
   15      -19.387534    -19.387534   1.000000   1.000000
   16      -19.385242    -19.385243   1.000000   1.000000
   17      -19.202858    -19.202858   1.000000   1.000000
   18      -19.202547    -19.202546   1.000000   1.000000
   19      -19.202008    -19.202008   1.000000   1.000000
   20      -19.199546    -19.199546   1.000000   1.000000
   21      -19.196286    -19.196286   1.000000   1.000000
   22      -19.193776    -19.193776   1.000000   1.000000
   23      -19.193212    -19.193212   1.000000   1.000000
   24      -19.189763    -19.189764   1.000000   1.000000
   25      -19.181548    -19.181548   1.000000   1.000000
   26      -19.181314    -19.181314   1.000000   1.000000
   27      -19.180568    -19.180568   1.000000   1.000000
   28      -19.175109    -19.175109   1.000000   1.000000
   29      -19.118292    -19.118293   1.000000   1.000000
   30      -19.117508    -19.117507   1.000000   1.000000
   31      -19.117008    -19.117008   1.000000   1.000000
   32      -19.110617    -19.110617   1.000000   1.000000
   33      -19.057614    -19.057615   1.000000   1.000000
   34      -19.056804    -19.056803   1.000000   1.000000
   35      -19.056259    -19.056258   1.000000   1.000000
   36      -19.050779    -19.050779   1.000000   1.000000
   37      -14.775750    -14.775750   1.000000   1.000000
   38      -14.774505    -14.774505   1.000000   1.000000
   39      -14.774055    -14.774055   1.000000   1.000000
   40      -14.772773    -14.772773   1.000000   1.000000
   41      -14.313925    -14.313925   1.000000   1.000000
   42      -14.312401    -14.312401   1.000000   1.000000
   43      -14.312051    -14.312051   1.000000   1.000000
   44      -14.309984    -14.309983   1.000000   1.000000
   45      -14.076964    -14.076963   1.000000   1.000000
   46      -14.074592    -14.074592   1.000000   1.000000
   47      -14.074346    -14.074345   1.000000   1.000000
   48      -14.073644    -14.073644   1.000000   1.000000
   49      -14.033440    -14.033439   1.000000   1.000000
   50      -14.031933    -14.031934   1.000000   1.000000
   51      -14.031347    -14.031347   1.000000   1.000000
   52      -14.030568    -14.030568   1.000000   1.000000
   53      -13.898761    -13.898761   1.000000   1.000000
   54      -13.897455    -13.897455   1.000000   1.000000
   55      -13.896810    -13.896810   1.000000   1.000000
   56      -13.895057    -13.895056   1.000000   1.000000
   57      -13.793978    -13.793977   1.000000   1.000000
   58      -13.792387    -13.792387   1.000000   1.000000
   59      -13.791803    -13.791802   1.000000   1.000000
   60      -13.790442    -13.790442   1.000000   1.000000
   61      -13.736666    -13.736666   1.000000   1.000000
   62      -13.736301    -13.736301   1.000000   1.000000
   63      -13.735420    -13.735419   1.000000   1.000000
   64      -13.734586    -13.734586   1.000000   1.000000
   65      -13.712852    -13.712851   1.000000   1.000000
   66      -13.712054    -13.712054   1.000000   1.000000
   67      -13.711693    -13.711692   1.000000   1.000000
   68      -13.710588    -13.710588   1.000000   1.000000
   69      -13.648271    -13.648270   1.000000   1.000000
   70      -13.647160    -13.647160   1.000000   1.000000
   71      -13.646267    -13.646267   1.000000   1.000000
   72      -13.644749    -13.644748   1.000000   1.000000
   73      -13.592052    -13.592052   1.000000   1.000000
   74      -13.591264    -13.591264   1.000000   1.000000
   75      -13.590669    -13.590669   1.000000   1.000000
   76      -13.589513    -13.589513   1.000000   1.000000
   77      -13.457953    -13.457953   1.000000   1.000000
   78      -13.456951    -13.456951   1.000000   1.000000
   79      -13.456175    -13.456175   1.000000   1.000000
   80      -13.455167    -13.455167   1.000000   1.000000
   81      -13.434190    -13.434190   1.000000   1.000000
   82      -13.433781    -13.433780   1.000000   1.000000
   83      -13.432720    -13.432720   1.000000   1.000000
   84      -13.431597    -13.431597   1.000000   1.000000
   85       -9.671565     -9.671565   1.000000   1.000000
   86       -9.670306     -9.670306   1.000000   1.000000
   87       -9.669078     -9.669078   1.000000   1.000000
   88       -9.668203     -9.668203   1.000000   1.000000
   89       -9.664871     -9.664871   1.000000   1.000000
   90       -9.664777     -9.664777   1.000000   1.000000
   91       -9.663122     -9.663122   1.000000   1.000000
   92       -9.662762     -9.662762   1.000000   1.000000
   93       -9.658276     -9.658276   1.000000   1.000000
   94       -9.657511     -9.657511   1.000000   1.000000
   95       -9.656238     -9.656238   1.000000   1.000000
   96       -9.655824     -9.655824   1.000000   1.000000
   97       -9.653819     -9.653819   1.000000   1.000000
   98       -9.652391     -9.652391   1.000000   1.000000
   99       -9.651531     -9.651531   1.000000   1.000000
  100       -9.650570     -9.650570   1.000000   1.000000
  101       -9.644446     -9.644446   1.000000   1.000000
  102       -9.643792     -9.643792   1.000000   1.000000
  103       -9.642109     -9.642109   1.000000   1.000000
  104       -9.641915     -9.641915   1.000000   1.000000
  105       -9.641698     -9.641698   1.000000   1.000000
  106       -9.641124     -9.641124   1.000000   1.000000
  107       -9.640380     -9.640379   1.000000   1.000000
  108       -9.639507     -9.639507   1.000000   1.000000
  109       -9.572488     -9.572488   1.000000   1.000000
  110       -9.571869     -9.571869   1.000000   1.000000
  111       -9.571636     -9.571636   1.000000   1.000000
  112       -9.571210     -9.571210   1.000000   1.000000
  113       -9.551115     -9.551115   1.000000   1.000000
  114       -9.549306     -9.549306   1.000000   1.000000
  115       -9.548794     -9.548794   1.000000   1.000000
  116       -9.547954     -9.547954   1.000000   1.000000
  117       -9.490006     -9.490006   1.000000   1.000000
  118       -9.488844     -9.488844   1.000000   1.000000
  119       -9.488423     -9.488423   1.000000   1.000000
  120       -9.487405     -9.487405   1.000000   1.000000
  121       -9.481166     -9.481166   1.000000   1.000000
  122       -9.480693     -9.480693   1.000000   1.000000
  123       -9.479442     -9.479442   1.000000   1.000000
  124       -9.478970     -9.478969   1.000000   1.000000
  125       -9.462508     -9.462508   1.000000   1.000000
  126       -9.461849     -9.461849   1.000000   1.000000
  127       -9.461737     -9.461737   1.000000   1.000000
  128       -9.460742     -9.460742   1.000000   1.000000
  129       -9.425603     -9.425603   1.000000   1.000000
  130       -9.425341     -9.425341   1.000000   1.000000
  131       -9.423721     -9.423721   1.000000   1.000000
  132       -9.423472     -9.423472   1.000000   1.000000
  133       -9.420365     -9.420365   1.000000   1.000000
  134       -9.420191     -9.420191   1.000000   1.000000
  135       -9.418443     -9.418443   1.000000   1.000000
  136       -9.418020     -9.418020   1.000000   1.000000
  137       -9.393355     -9.393355   1.000000   1.000000
  138       -9.392831     -9.392831   1.000000   1.000000
  139       -9.391533     -9.391532   1.000000   1.000000
  140       -9.391034     -9.391034   1.000000   1.000000
  141       -9.361480     -9.361480   1.000000   1.000000
  142       -9.361408     -9.361408   1.000000   1.000000
  143       -9.359536     -9.359536   1.000000   1.000000
  144       -9.358968     -9.358968   1.000000   1.000000
  145       -3.460867     -3.460867   1.000000   1.000000
  146       -3.458842     -3.458842   1.000000   1.000000
  147       -3.458453     -3.458453   1.000000   1.000000
  148       -3.457626     -3.457625   1.000000   1.000000
  149       -2.959807     -2.959807   1.000000   1.000000
  150       -2.958147     -2.958147   1.000000   1.000000
  151       -2.957354     -2.957354   1.000000   1.000000
  152       -2.956662     -2.956662   1.000000   1.000000
  153       -2.368525     -2.368525   1.000000   1.000000
  154       -2.367013     -2.367013   1.000000   1.000000
  155       -2.366393     -2.366393   1.000000   1.000000
  156       -2.364927     -2.364927   1.000000   1.000000
  157       -2.114292     -2.114292   1.000000   1.000000
  158       -2.114102     -2.114102   1.000000   1.000000
  159       -2.112185     -2.112185   1.000000   1.000000
  160       -2.110939     -2.110939   1.000000   1.000000
  161       -1.344962     -1.344962   1.000000   1.000000
  162       -1.343732     -1.343732   1.000000   1.000000
  163       -1.343336     -1.343336   1.000000   1.000000
  164       -1.342650     -1.342650   1.000000   1.000000
  165       -1.331500     -1.331500   1.000000   1.000000
  166       -1.329443     -1.329443   1.000000   1.000000
  167       -1.329170     -1.329170   1.000000   1.000000
  168       -1.328049     -1.328049   1.000000   1.000000
  169       -1.189119     -1.189119   1.000000   1.000000
  170       -1.188316     -1.188316   1.000000   1.000000
  171       -1.187874     -1.187875   1.000000   1.000000
  172       -1.187427     -1.187427   1.000000   1.000000
  173       -0.817217     -0.817217   1.000000   1.000000
  174       -0.815772     -0.815772   1.000000   1.000000
  175       -0.815240     -0.815240   1.000000   1.000000
  176       -0.814920     -0.814919   1.000000   1.000000
  177       -0.562701     -0.562701   1.000000   1.000000
  178       -0.562052     -0.562052   1.000000   1.000000
  179       -0.561401     -0.561401   1.000000   1.000000
  180       -0.560848     -0.560848   1.000000   1.000000
  181       -0.548363     -0.548363   1.000000   1.000000
  182       -0.547259     -0.547259   1.000000   1.000000
  183       -0.546622     -0.546622   1.000000   1.000000
  184       -0.546045     -0.546045   1.000000   1.000000
  185       -0.362815     -0.362815   1.000000   1.000000
  186       -0.362292     -0.362292   1.000000   1.000000
  187       -0.361723     -0.361723   1.000000   1.000000
  188       -0.360911     -0.360911   1.000000   1.000000
  189       -0.276098     -0.276098   1.000000   1.000000
  190       -0.275925     -0.275925   1.000000   1.000000
  191       -0.275448     -0.275448   1.000000   1.000000
  192       -0.273898     -0.273897   1.000000   1.000000
  193       -0.157140     -0.157140   1.000000   1.000000
  194       -0.156216     -0.156216   1.000000   1.000000
  195       -0.155262     -0.155262   1.000000   1.000000
  196       -0.154000     -0.154000   1.000000   1.000000
  197        0.081216      0.081216   1.000000   1.000000
  198        0.081554      0.081554   1.000000   1.000000
  199        0.082528      0.082528   1.000000   1.000000
  200        0.082798      0.082799   1.000000   1.000000
  201        0.304373      0.304372   1.000000   1.000000
  202        0.305102      0.305102   1.000000   1.000000
  203        0.305852      0.305852   1.000000   1.000000
  204        0.306968      0.306969   1.000000   1.000000
  205        0.399431      0.399431   1.000000   1.000000
  206        0.400444      0.400444   1.000000   1.000000
  207        0.401320      0.401320   1.000000   1.000000
  208        0.402839      0.402840   1.000000   1.000000
  209        0.451669      0.451670   1.000000   1.000000
  210        0.452567      0.452567   1.000000   1.000000
  211        0.453537      0.453537   1.000000   1.000000
  212        0.453943      0.453943   1.000000   1.000000
  213        0.785978      0.785979   1.000000   1.000000
  214        0.788080      0.788080   1.000000   1.000000
  215        0.789270      0.789270   1.000000   1.000000
  216        0.789401      0.789401   1.000000   1.000000
  217        0.790138      0.790138   1.000000   1.000000
  218        0.791041      0.791042   1.000000   1.000000
  219        0.791375      0.791375   1.000000   1.000000
  220        0.792324      0.792324   1.000000   1.000000
  221        0.981509      0.981509   1.000000   1.000000
  222        0.982442      0.982442   1.000000   1.000000
  223        0.982757      0.982757   1.000000   1.000000
  224        0.983345      0.983345   1.000000   1.000000
  225        1.190087      1.190087   1.000000   1.000000
  226        1.191251      1.191251   1.000000   1.000000
  227        1.191952      1.191952   1.000000   1.000000
  228        1.192956      1.192956   1.000000   1.000000
  229        1.287991      1.287991   1.000000   1.000000
  230        1.288643      1.288644   1.000000   1.000000
  231        1.289160      1.289161   1.000000   1.000000
  232        1.290871      1.290872   1.000000   1.000000
  233        1.345020      1.345020   1.000000   1.000000
  234        1.346001      1.346001   1.000000   1.000000
  235        1.346393      1.346393   1.000000   1.000000
  236        1.347996      1.347996   1.000000   1.000000
  237        1.543956      1.543956   1.000000   1.000000
  238        1.545833      1.545833   1.000000   1.000000
  239        1.546256      1.546256   1.000000   1.000000
  240        1.546705      1.546705   1.000000   1.000000
  241        1.578410      1.578409   1.000000   1.000000
  242        1.580116      1.580116   1.000000   1.000000
  243        1.580508      1.580509   1.000000   1.000000
  244        1.581357      1.581357   1.000000   1.000000
  245        1.600449      1.600449   1.000000   1.000000
  246        1.601769      1.601769   1.000000   1.000000
  247        1.603035      1.603035   1.000000   1.000000
  248        1.604226      1.604226   1.000000   1.000000
  249        1.696184      1.696184   1.000000   1.000000
  250        1.697500      1.697500   1.000000   1.000000
  251        1.698057      1.698057   1.000000   1.000000
  252        1.699057      1.699057   1.000000   1.000000
  253        1.738560      1.738560   1.000000   1.000000
  254        1.739716      1.739716   1.000000   1.000000
  255        1.740254      1.740254   1.000000   1.000000
  256        1.740800      1.740800   1.000000   1.000000
  257        1.929207      1.929208   1.000000   1.000000
  258        1.930468      1.930468   1.000000   1.000000
  259        1.930938      1.930938   1.000000   1.000000
  260        1.931869      1.931870   1.000000   1.000000
  261        1.977187      1.977187   1.000000   1.000000
  262        1.978365      1.978365   1.000000   1.000000
  263        1.979407      1.979407   1.000000   1.000000
  264        1.980323      1.980323   1.000000   1.000000
  265        1.988893      1.988893   1.000000   1.000000
  266        1.990784      1.990784   1.000000   1.000000
  267        1.991847      1.991848   1.000000   1.000000
  268        1.992888      1.992889   1.000000   1.000000
  269        2.132930      2.132931   1.000000   1.000000
  270        2.134626      2.134626   1.000000   1.000000
  271        2.135114      2.135114   1.000000   1.000000
  272        2.135766      2.135766   1.000000   1.000000
  273        2.190061      2.190061   1.000000   1.000000
  274        2.191701      2.191700   1.000000   1.000000
  275        2.192430      2.192430   1.000000   1.000000
  276        2.193426      2.193427   1.000000   1.000000
  277        2.235397      2.235398   1.000000   1.000000
  278        2.237022      2.237021   1.000000   1.000000
  279        2.238064      2.238064   1.000000   1.000000
  280        2.239438      2.239438   1.000000   1.000000
  281        2.440232      2.440233   1.000000   1.000000
  282        2.440683      2.440683   1.000000   1.000000
  283        2.441388      2.441388   1.000000   1.000000
  284        2.442186      2.442186   1.000000   1.000000
  285        2.534963      2.534964   1.000000   1.000000
  286        2.536774      2.536774   1.000000   1.000000
  287        2.537084      2.537083   1.000000   1.000000
  288        2.538393      2.538393   1.000000   1.000000
  289        7.811524      7.811524   0.000000   0.000000
  290        7.813441      7.813441   0.000000   0.000000
  291        7.814011      7.814010   0.000000   0.000000
  292        7.814968      7.814968   0.000000   0.000000
  293        8.132604      8.132604   0.000000   0.000000
  294        8.133811      8.133811   0.000000   0.000000
  295        8.134960      8.134960   0.000000   0.000000
  296        8.140511      8.140511   0.000000   0.000000
  297        8.755727      8.755728   0.000000   0.000000
  298        8.757335      8.757335   0.000000   0.000000
  299        8.758201      8.758201   0.000000   0.000000
  300        8.760606      8.760606   0.000000   0.000000
  301        9.036475      9.036475   0.000000   0.000000
  302        9.037703      9.037703   0.000000   0.000000
  303        9.038528      9.038528   0.000000   0.000000
  304        9.040099      9.040099   0.000000   0.000000
  305        9.127926      9.127926   0.000000   0.000000
  306        9.128401      9.128401   0.000000   0.000000
  307        9.129359      9.129359   0.000000   0.000000
  308        9.134313      9.134312   0.000000   0.000000
  309        9.302695      9.302695   0.000000   0.000000
  310        9.304364      9.304364   0.000000   0.000000
  311        9.304673      9.304673   0.000000   0.000000
  312        9.309901      9.309901   0.000000   0.000000
  313        9.447492      9.447492   0.000000   0.000000
  314        9.448456      9.448456   0.000000   0.000000
  315        9.450561      9.450561   0.000000   0.000000
  316        9.452633      9.452633   0.000000   0.000000
  317        9.541495      9.541495   0.000000   0.000000
  318        9.542445      9.542446   0.000000   0.000000
  319        9.543694      9.543694   0.000000   0.000000
  320        9.547439      9.547438   0.000000   0.000000
  321        9.844886      9.844885   0.000000   0.000000
  322        9.845515      9.845514   0.000000   0.000000
  323        9.846504      9.846503   0.000000   0.000000
  324        9.849698      9.849698   0.000000   0.000000
  325       10.394297     10.394294   0.000000   0.000000
  326       10.396057     10.396057   0.000000   0.000000
  327       10.397139     10.397138   0.000000   0.000000
  328       10.398127     10.398125   0.000000   0.000000
  329       10.632360     10.632360   0.000000   0.000000
  330       10.634280     10.634279   0.000000   0.000000
  331       10.634996     10.634996   0.000000   0.000000
  332       10.636753     10.636753   0.000000   0.000000
  333       10.920341     10.920341   0.000000   0.000000
  334       10.921270     10.921268   0.000000   0.000000
  335       10.922920     10.922920   0.000000   0.000000
  336       10.926922     10.926927   0.000000   0.000000
  337       11.219017     11.219017   0.000000   0.000000
  338       11.221174     11.221174   0.000000   0.000000
  339       11.222419     11.222419   0.000000   0.000000
  340       11.225995     11.225994   0.000000   0.000000
  341       11.422126     11.422125   0.000000   0.000000
  342       11.425040     11.425040   0.000000   0.000000
  343       11.425814     11.425814   0.000000   0.000000
  344       11.428719     11.428721   0.000000   0.000000
  345       11.776754     11.776747   0.000000   0.000000
  346       11.781359     11.781359   0.000000   0.000000
  347       11.781962     11.781962   0.000000   0.000000
  348       11.785651     11.785651   0.000000   0.000000
  349       11.831710     11.831710   0.000000   0.000000
  350       11.832362     11.832363   0.000000   0.000000
  351       11.834251     11.834251   0.000000   0.000000
  352       11.836347     11.836351   0.000000   0.000000
  353       11.903562     11.903558   0.000000   0.000000
  354       11.905935     11.905935   0.000000   0.000000
  355       11.906795     11.906795   0.000000   0.000000
  356       11.908884     11.908884   0.000000   0.000000
  357       11.953601     11.953597   0.000000   0.000000
  358       11.956942     11.956941   0.000000   0.000000
  359       11.958585     11.958586   0.000000   0.000000
  360       11.960752     11.960751   0.000000   0.000000
  361       12.230755     12.230759   0.000000   0.000000
  362       12.234322     12.234322   0.000000   0.000000
  363       12.235350     12.235350   0.000000   0.000000
  364       12.237132     12.237131   0.000000   0.000000
  365       12.273935     12.273935   0.000000   0.000000
  366       12.277175     12.277175   0.000000   0.000000
  367       12.278967     12.278969   0.000000   0.000000
  368       12.282156     12.282159   0.000000   0.000000
  369       12.435211     12.435211   0.000000   0.000000
  370       12.435749     12.435748   0.000000   0.000000
  371       12.437714     12.437716   0.000000   0.000000
  372       12.441607     12.441629   0.000000   0.000000
  373       12.743768     12.743768   0.000000   0.000000
  374       12.744592     12.744594   0.000000   0.000000
  375       12.745137     12.745138   0.000000   0.000000
  376       12.751608     12.751659   0.000000   0.000000
  377       13.029223     13.029227   0.000000   0.000000
  378       13.029743     13.029744   0.000000   0.000000
  379       13.030510     13.030509   0.000000   0.000000
  380       13.035253     13.035275   0.000000   0.000000
  381       13.271985     13.278066   0.000000   0.000000
  382       13.275499     13.281074   0.000000   0.000000
  383       13.281564     13.286582   0.000000   0.000000
  384       13.298734     13.297642   0.000000   0.000000
 
 -0.2500000E+00  0.2500000E+00  0.2500000E+00  0.7500000E+00
    1      -19.511385    -19.511384   1.000000   1.000000
    2      -19.510021    -19.510022   1.000000   1.000000
    3      -19.473550    -19.473550   1.000000   1.000000
    4      -19.473003    -19.473003   1.000000   1.000000
    5      -19.464281    -19.464281   1.000000   1.000000
    6      -19.461710    -19.461710   1.000000   1.000000
    7      -19.455534    -19.455534   1.000000   1.000000
    8      -19.450342    -19.450343   1.000000   1.000000
    9      -19.432633    -19.432632   1.000000   1.000000
   10      -19.426825    -19.426825   1.000000   1.000000
   11      -19.425248    -19.425248   1.000000   1.000000
   12      -19.403095    -19.403095   1.000000   1.000000
   13      -19.364543    -19.364543   1.000000   1.000000
   14      -19.348767    -19.348768   1.000000   1.000000
   15      -19.318865    -19.318865   1.000000   1.000000
   16      -19.316546    -19.316545   1.000000   1.000000
   17      -19.312248    -19.312248   1.000000   1.000000
   18      -19.301736    -19.301736   1.000000   1.000000
   19      -19.213200    -19.213200   1.000000   1.000000
   20      -19.212528    -19.212528   1.000000   1.000000
   21      -19.201565    -19.201565   1.000000   1.000000
   22      -19.200545    -19.200545   1.000000   1.000000
   23      -19.172867    -19.172866   1.000000   1.000000
   24      -19.166036    -19.166036   1.000000   1.000000
   25      -19.149277    -19.149277   1.000000   1.000000
   26      -19.147874    -19.147874   1.000000   1.000000
   27      -19.146719    -19.146719   1.000000   1.000000
   28      -19.144687    -19.144688   1.000000   1.000000
   29      -19.138051    -19.138050   1.000000   1.000000
   30      -19.130375    -19.130375   1.000000   1.000000
   31      -19.115685    -19.115685   1.000000   1.000000
   32      -19.111719    -19.111719   1.000000   1.000000
   33      -19.062921    -19.062921   1.000000   1.000000
   34      -19.060309    -19.060310   1.000000   1.000000
   35      -19.056646    -19.056646   1.000000   1.000000
   36      -19.053450    -19.053451   1.000000   1.000000
   37      -15.037650    -15.037650   1.000000   1.000000
   38      -14.608923    -14.608923   1.000000   1.000000
   39      -14.574011    -14.574010   1.000000   1.000000
   40      -14.573337    -14.573337   1.000000   1.000000
   41      -14.537351    -14.537350   1.000000   1.000000
   42      -14.360688    -14.360688   1.000000   1.000000
   43      -14.310700    -14.310700   1.000000   1.000000
   44      -14.309787    -14.309787   1.000000   1.000000
   45      -14.146645    -14.146645   1.000000   1.000000
   46      -14.116439    -14.116438   1.000000   1.000000
   47      -14.115402    -14.115402   1.000000   1.000000
   48      -14.113357    -14.113357   1.000000   1.000000
   49      -14.045003    -14.045003   1.000000   1.000000
   50      -14.017669    -14.017669   1.000000   1.000000
   51      -14.014765    -14.014765   1.000000   1.000000
   52      -13.964748    -13.964748   1.000000   1.000000
   53      -13.904452    -13.904452   1.000000   1.000000
   54      -13.881945    -13.881945   1.000000   1.000000
   55      -13.881492    -13.881492   1.000000   1.000000
   56      -13.871713    -13.871713   1.000000   1.000000
   57      -13.841740    -13.841740   1.000000   1.000000
   58      -13.825800    -13.825799   1.000000   1.000000
   59      -13.824723    -13.824722   1.000000   1.000000
   60      -13.818303    -13.818303   1.000000   1.000000
   61      -13.802374    -13.802374   1.000000   1.000000
   62      -13.720592    -13.720592   1.000000   1.000000
   63      -13.719941    -13.719940   1.000000   1.000000
   64      -13.710609    -13.710609   1.000000   1.000000
   65      -13.693602    -13.693602   1.000000   1.000000
   66      -13.692496    -13.692496   1.000000   1.000000
   67      -13.687264    -13.687264   1.000000   1.000000
   68      -13.661362    -13.661362   1.000000   1.000000
   69      -13.660247    -13.660246   1.000000   1.000000
   70      -13.635588    -13.635588   1.000000   1.000000
   71      -13.603730    -13.603730   1.000000   1.000000
   72      -13.592241    -13.592241   1.000000   1.000000
   73      -13.590697    -13.590696   1.000000   1.000000
   74      -13.536169    -13.536168   1.000000   1.000000
   75      -13.523070    -13.523071   1.000000   1.000000
   76      -13.522417    -13.522417   1.000000   1.000000
   77      -13.514048    -13.514047   1.000000   1.000000
   78      -13.512007    -13.512007   1.000000   1.000000
   79      -13.510421    -13.510421   1.000000   1.000000
   80      -13.489812    -13.489812   1.000000   1.000000
   81      -13.451364    -13.451364   1.000000   1.000000
   82      -13.450971    -13.450971   1.000000   1.000000
   83      -13.427210    -13.427210   1.000000   1.000000
   84      -13.424024    -13.424023   1.000000   1.000000
   85       -9.677620     -9.677620   1.000000   1.000000
   86       -9.671692     -9.671692   1.000000   1.000000
   87       -9.669885     -9.669885   1.000000   1.000000
   88       -9.668805     -9.668805   1.000000   1.000000
   89       -9.666083     -9.666083   1.000000   1.000000
   90       -9.665741     -9.665740   1.000000   1.000000
   91       -9.661269     -9.661269   1.000000   1.000000
   92       -9.660410     -9.660411   1.000000   1.000000
   93       -9.659747     -9.659747   1.000000   1.000000
   94       -9.656963     -9.656963   1.000000   1.000000
   95       -9.656131     -9.656131   1.000000   1.000000
   96       -9.653226     -9.653225   1.000000   1.000000
   97       -9.651740     -9.651740   1.000000   1.000000
   98       -9.650733     -9.650732   1.000000   1.000000
   99       -9.649719     -9.649719   1.000000   1.000000
  100       -9.648527     -9.648527   1.000000   1.000000
  101       -9.647884     -9.647884   1.000000   1.000000
  102       -9.646155     -9.646155   1.000000   1.000000
  103       -9.644066     -9.644066   1.000000   1.000000
  104       -9.642417     -9.642417   1.000000   1.000000
  105       -9.639799     -9.639798   1.000000   1.000000
  106       -9.639163     -9.639162   1.000000   1.000000
  107       -9.636260     -9.636260   1.000000   1.000000
  108       -9.635602     -9.635602   1.000000   1.000000
  109       -9.582537     -9.582537   1.000000   1.000000
  110       -9.581341     -9.581341   1.000000   1.000000
  111       -9.580742     -9.580742   1.000000   1.000000
  112       -9.564351     -9.564351   1.000000   1.000000
  113       -9.563773     -9.563773   1.000000   1.000000
  114       -9.525776     -9.525776   1.000000   1.000000
  115       -9.524657     -9.524657   1.000000   1.000000
  116       -9.523507     -9.523507   1.000000   1.000000
  117       -9.517490     -9.517490   1.000000   1.000000
  118       -9.510794     -9.510794   1.000000   1.000000
  119       -9.509031     -9.509032   1.000000   1.000000
  120       -9.498925     -9.498925   1.000000   1.000000
  121       -9.495264     -9.495264   1.000000   1.000000
  122       -9.481927     -9.481927   1.000000   1.000000
  123       -9.471400     -9.471400   1.000000   1.000000
  124       -9.470747     -9.470747   1.000000   1.000000
  125       -9.454976     -9.454976   1.000000   1.000000
  126       -9.448409     -9.448409   1.000000   1.000000
  127       -9.444519     -9.444519   1.000000   1.000000