   80   80    1    1
  0.1136798E+02  0.1057138E-08  0.1057138E-08  0.1057138E-08  0.5000000E-15
  1.000000000000000E-004
  CAR 
 unknown system                          
    576     57    512
 
  0.0000000E+00  0.0000000E+00  0.0000000E+00  0.1754386E-01
    1      -19.476916   1.000000
    2      -19.476910   1.000000
    3      -19.476910   1.000000
    4      -19.447688   1.000000
    5      -19.447675   1.000000
    6      -19.447675   1.000000
    7      -19.418781   1.000000
    8      -19.418781   1.000000
    9      -19.418653   1.000000
   10      -19.415975   1.000000
   11      -19.415974   1.000000
   12      -19.408529   1.000000
   13      -19.408529   1.000000
   14      -19.408402   1.000000
   15      -19.388815   1.000000
   16      -19.388815   1.000000
   17      -19.303940   1.000000
   18      -19.302437   1.000000
   19      -19.157746   1.000000
   20      -19.157591   1.000000
   21      -19.157591   1.000000
   22      -19.152880   1.000000
   23      -19.152880   1.000000
   24      -19.152748   1.000000
   25      -19.150238   1.000000
   26      -19.150237   1.000000
   27      -19.150102   1.000000
   28      -19.148291   1.000000
   29      -19.148132   1.000000
   30      -19.148132   1.000000
   31      -19.066353   1.000000
   32      -19.066242   1.000000
   33      -19.066241   1.000000
   34      -19.065928   1.000000
   35      -19.065820   1.000000
   36      -19.065820   1.000000
   37      -15.193447   1.000000
   38      -14.378475   1.000000
   39      -14.378475   1.000000
   40      -14.378453   1.000000
   41      -14.374110   1.000000
   42      -14.371465   1.000000
   43      -14.371465   1.000000
   44      -14.371411   1.000000
   45      -14.283354   1.000000
   46      -14.283304   1.000000
   47      -14.283304   1.000000
   48      -14.226720   1.000000
   49      -13.987451   1.000000
   50      -13.987451   1.000000
   51      -13.962406   1.000000
   52      -13.960347   1.000000
   53      -13.960347   1.000000
   54      -13.882631   1.000000
   55      -13.882621   1.000000
   56      -13.882621   1.000000
   57      -13.855960   1.000000
   58      -13.855959   1.000000
   59      -13.836918   1.000000
   60      -13.836918   1.000000
   61      -13.836854   1.000000
   62      -13.667218   1.000000
   63      -13.667141   1.000000
   64      -13.667141   1.000000
   65      -13.656250   1.000000
   66      -13.656179   1.000000
   67      -13.656179   1.000000
   68      -13.655248   1.000000
   69      -13.655248   1.000000
   70      -13.655204   1.000000
   71      -13.569947   1.000000
   72      -13.569947   1.000000
   73      -13.569925   1.000000
   74      -13.547395   1.000000
   75      -13.547395   1.000000
   76      -13.547363   1.000000
   77      -13.497073   1.000000
   78      -13.497073   1.000000
   79      -13.497065   1.000000
   80      -13.460142   1.000000
   81      -13.460055   1.000000
   82      -13.460055   1.000000
   83      -13.422410   1.000000
   84      -13.422410   1.000000
   85       -9.660161   1.000000
   86       -9.648652   1.000000
   87       -9.648651   1.000000
   88       -9.642772   1.000000
   89       -9.641842   1.000000
   90       -9.641842   1.000000
   91       -9.637242   1.000000
   92       -9.637242   1.000000
   93       -9.637237   1.000000
   94       -9.635703   1.000000
   95       -9.635702   1.000000
   96       -9.635701   1.000000
   97       -9.633536   1.000000
   98       -9.633536   1.000000
   99       -9.633536   1.000000
  100       -9.632026   1.000000
  101       -9.630080   1.000000
  102       -9.630079   1.000000
  103       -9.630078   1.000000
  104       -9.619747   1.000000
  105       -9.619747   1.000000
  106       -9.615875   1.000000
  107       -9.615874   1.000000
  108       -9.611306   1.000000
  109       -9.594035   1.000000
  110       -9.586623   1.000000
  111       -9.586612   1.000000
  112       -9.586611   1.000000
  113       -9.542078   1.000000
  114       -9.484017   1.000000
  115       -9.484014   1.000000
  116       -9.484013   1.000000
  117       -9.469620   1.000000
  118       -9.469620   1.000000
  119       -9.468132   1.000000
  120       -9.468123   1.000000
  121       -9.468123   1.000000
  122       -9.464116   1.000000
  123       -9.464104   1.000000
  124       -9.464103   1.000000
  125       -9.455880   1.000000
  126       -9.455880   1.000000
  127       -9.430299   1.000000
  128       -9.430290   1.000000
  129       -9.430290   1.000000
  130       -9.425851   1.000000
  131       -9.425850   1.000000
  132       -9.425849   1.000000
  133       -9.417410   1.000000
  134       -9.417410   1.000000
  135       -9.417402   1.000000
  136       -9.372187   1.000000
  137       -9.372186   1.000000
  138       -9.372181   1.000000
  139       -9.361327   1.000000
  140       -9.361327   1.000000
  141       -9.361312   1.000000
  142       -9.342915   1.000000
  143       -9.342915   1.000000
  144       -9.342898   1.000000
  145       -4.164315   1.000000
  146       -3.326774   1.000000
  147       -2.974295   1.000000
  148       -2.974295   1.000000
  149       -2.974294   1.000000
  150       -2.850034   1.000000
  151       -2.850034   1.000000
  152       -2.850026   1.000000
  153       -2.588636   1.000000
  154       -2.588636   1.000000
  155       -2.588616   1.000000
  156       -2.234061   1.000000
  157       -2.228113   1.000000
  158       -2.228113   1.000000
  159       -2.185132   1.000000
  160       -2.185132   1.000000
  161       -1.938213   1.000000
  162       -1.381416   1.000000
  163       -1.175126   1.000000
  164       -1.175098   1.000000
  165       -1.175098   1.000000
  166       -1.150695   1.000000
  167       -1.150679   1.000000
  168       -1.150679   1.000000
  169       -0.958702   1.000000
  170       -0.958702   1.000000
  171       -0.922823   1.000000
  172       -0.922822   1.000000
  173       -0.922821   1.000000
  174       -0.895901   1.000000
  175       -0.895900   1.000000
  176       -0.895895   1.000000
  177       -0.794541   1.000000
  178       -0.794541   1.000000
  179       -0.794523   1.000000
  180       -0.767917   1.000000
  181       -0.767916   1.000000
  182       -0.413055   1.000000
  183       -0.413021   1.000000
  184       -0.413021   1.000000
  185       -0.250524   1.000000
  186       -0.250524   1.000000
  187       -0.236272   1.000000
  188       -0.236239   1.000000
  189       -0.236239   1.000000
  190       -0.132131   1.000000
  191       -0.132131   1.000000
  192       -0.132128   1.000000
  193       -0.093015   1.000000
  194       -0.092992   1.000000
  195       -0.092992   1.000000
  196       -0.029810   1.000000
  197       -0.029786   1.000000
  198       -0.029786   1.000000
  199        0.097707   1.000000
  200        0.097707   1.000000
  201        0.097722   1.000000
  202        0.160142   1.000000
  203        0.359025   1.000000
  204        0.390212   1.000000
  205        0.390212   1.000000
  206        0.390226   1.000000
  207        0.473443   1.000000
  208        0.473443   1.000000
  209        0.529226   1.000000
  210        0.529226   1.000000
  211        0.615139   1.000000
  212        0.615139   1.000000
  213        0.615150   1.000000
  214        0.670209   1.000000
  215        0.670228   1.000000
  216        0.670228   1.000000
  217        0.820464   1.000000
  218        0.820466   1.000000
  219        0.820466   1.000000
  220        0.834927   1.000000
  221        0.847250   1.000000
  222        0.847250   1.000000
  223        0.847298   1.000000
  224        0.962253   1.000000
  225        0.962264   1.000000
  226        0.962264   1.000000
  227        1.045486   1.000000
  228        1.045494   1.000000
  229        1.045495   1.000000
  230        1.073376   1.000000
  231        1.079197   1.000000
  232        1.079197   1.000000
  233        1.173928   1.000000
  234        1.173929   1.000000
  235        1.173929   1.000000
  236        1.474460   1.000000
  237        1.474490   1.000000
  238        1.474490   1.000000
  239        1.494063   1.000000
  240        1.494063   1.000000
  241        1.599066   1.000000
  242        1.599066   1.000000
  243        1.599074   1.000000
  244        1.647290   1.000000
  245        1.647290   1.000000
  246        1.647297   1.000000
  247        1.719669   1.000000
  248        1.719669   1.000000
  249        1.750703   1.000000
  250        1.750703   1.000000
  251        1.750729   1.000000
  252        1.837498   1.000000
  253        1.837498   1.000000
  254        1.837560   1.000000
  255        1.928154   1.000000
  256        1.928165   1.000000
  257        1.928166   1.000000
  258        1.930067   1.000000
  259        1.930103   1.000000
  260        1.930103   1.000000
  261        1.958930   1.000000
  262        1.997903   1.000000
  263        1.997903   1.000000
  264        2.100959   1.000000
  265        2.100959   1.000000
  266        2.100987   1.000000
  267        2.116904   1.000000
  268        2.116904   1.000000
  269        2.116918   1.000000
  270        2.141556   1.000000
  271        2.141556   1.000000
  272        2.161653   1.000000
  273        2.161679   1.000000
  274        2.161679   1.000000
  275        2.321102   1.000000
  276        2.321113   1.000000
  277        2.321113   1.000000
  278        2.323834   1.000000
  279        2.358292   1.000000
  280        2.358294   1.000000
  281        2.358294   1.000000
  282        2.413415   1.000000
  283        2.413415   1.000000
  284        2.413464   1.000000
  285        2.422048   1.000000
  286        2.650531   1.000000
  287        2.650562   1.000000
  288        2.650562   1.000000
  289        6.452123   0.000000
  290        7.616736   0.000000
  291        7.977968   0.000000
  292        8.464022   0.000000
  293        8.464023   0.000000
  294        8.464045   0.000000
  295        8.575329   0.000000
  296        8.575330   0.000000
  297        8.575360   0.000000
  298        8.736886   0.000000
  299        8.736886   0.000000
  300        8.803965   0.000000
  301        8.803965   0.000000
  302        8.804001   0.000000
  303        9.025133   0.000000
  304        9.025196   0.000000
  305        9.025196   0.000000
  306        9.057068   0.000000
  307        9.274268   0.000000
  308        9.274268   0.000000
  309        9.274308   0.000000
  310        9.348686   0.000000
  311        9.348686   0.000000
  312        9.366085   0.000000
  313        9.366201   0.000000
  314        9.366201   0.000000
  315        9.487563   0.000000
  316        9.487705   0.000000
  317        9.487705   0.000000
  318        9.796918   0.000000
  319        9.796918   0.000000
  320        9.797010   0.000000
  321       10.015027   0.000000
  322       10.015027   0.000000
  323       10.103574   0.000000
  324       10.103574   0.000000
  325       10.272495   0.000000
  326       10.272539   0.000000
  327       10.272539   0.000000
  328       10.467803   0.000000
  329       10.467828   0.000000
  330       10.467828   0.000000
  331       10.756309   0.000000
  332       10.756310   0.000000
  333       10.869870   0.000000
  334       10.902282   0.000000
  335       10.902282   0.000000
  336       10.902308   0.000000
  337       10.971776   0.000000
  338       10.971776   0.000000
  339       11.334551   0.000000
  340       11.334588   0.000000
  341       11.334588   0.000000
  342       11.390544   0.000000
  343       11.390544   0.000000
  344       11.390564   0.000000
  345       11.459532   0.000000
  346       11.459532   0.000000
  347       11.459533   0.000000
  348       11.529533   0.000000
  349       11.593750   0.000000
  350       11.593750   0.000000
  351       11.593751   0.000000
  352       11.750676   0.000000
  353       11.750737   0.000000
  354       11.750737   0.000000
  355       11.922669   0.000000
  356       11.922670   0.000000
  357       11.922671   0.000000
  358       12.101803   0.000000
  359       12.176085   0.000000
  360       12.176085   0.000000
  361       12.258666   0.000000
  362       12.258667   0.000000
  363       12.285481   0.000000
  364       12.366195   0.000000
  365       12.402453   0.000000
  366       12.402453   0.000000
  367       12.402562   0.000000
  368       12.717612   0.000000
  369       12.717639   0.000000
  370       12.717640   0.000000
  371       12.721324   0.000000
  372       12.721324   0.000000
  373       12.721405   0.000000
  374       12.734207   0.000000
  375       12.734207   0.000000
  376       12.734209   0.000000
  377       12.801633   0.000000
  378       12.999435   0.000000
  379       13.085062   0.000000
  380       13.085084   0.000000
  381       13.085084   0.000000
  382       13.239815   0.000000
  383       13.239815   0.000000
  384       13.487444   0.000000
  385       13.487448   0.000000
  386       13.487468   0.000000
  387       13.532567   0.000000
  388       13.532567   0.000000
  389       13.532612   0.000000
  390       13.636961   0.000000
  391       13.636961   0.000000
  392       13.636962   0.000000
  393       14.273771   0.000000
  394       14.273771   0.000000
  395       14.273789   0.000000
  396       14.338826   0.000000
  397       14.479490   0.000000
  398       14.479490   0.000000
  399       14.479497   0.000000
  400       14.626047   0.000000
  401       14.626048   0.000000
  402       14.626063   0.000000
  403       14.743740   0.000000
  404       14.743745   0.000000
  405       14.743745   0.000000
  406       14.779692   0.000000
  407       14.805756   0.000000
  408       14.805756   0.000000
  409       15.052094   0.000000
  410       15.052095   0.000000
  411       15.418778   0.000000
  412       15.418797   0.000000
  413       15.418798   0.000000
  414       15.578735   0.000000
  415       15.578784   0.000000
  416       15.578785   0.000000
  417       15.743832   0.000000
  418       15.743833   0.000000
  419       16.046339   0.000000
  420       16.234107   0.000000
  421       16.234146   0.000000
  422       16.234148   0.000000
  423       16.380351   0.000000
  424       16.380352   0.000000
  425       16.451085   0.000000
  426       16.501405   0.000000
  427       16.501429   0.000000
  428       16.501430   0.000000
  429       16.534458   0.000000
  430       16.534460   0.000000
  431       16.534468   0.000000
  432       16.535059   0.000000
  433       16.535060   0.000000
  434       16.535062   0.000000
  435       16.551607   0.000000
  436       16.551608   0.000000
  437       16.551615   0.000000
  438       16.605357   0.000000
  439       16.605358   0.000000
  440       16.838644   0.000000
  441       16.853348   0.000000
  442       16.853349   0.000000
  443       16.853378   0.000000
  444       16.893250   0.000000
  445       16.893252   0.000000
  446       17.214764   0.000000
  447       17.214773   0.000000
  448       17.214780   0.000000
  449       17.259179   0.000000
  450       17.259181   0.000000
  451       17.259205   0.000000
  452       17.450525   0.000000
  453       17.450527   0.000000
  454       17.638763   0.000000
  455       17.638800   0.000000
  456       17.638805   0.000000
  457       17.695144   0.000000
  458       17.696645   0.000000
  459       18.386340   0.000000
  460       18.386351   0.000000
  461       18.386399   0.000000
  462       18.470911   0.000000
  463       18.470921   0.000000
  464       18.664640   0.000000
  465       18.664716   0.000000
  466       18.664834   0.000000
  467       18.838784   0.000000
  468       18.838814   0.000000
  469       18.838920   0.000000
  470       19.225507   0.000000
  471       19.315101   0.000000
  472       19.315315   0.000000
  473       19.315588   0.000000
  474       19.499326   0.000000
  475       19.499531   0.000000
  476       19.500230   0.000000
  477       19.782832   0.000000
  478       19.783106   0.000000
  479       19.783921   0.000000
  480       19.918773   0.000000
  481       19.919753   0.000000
  482       20.017403   0.000000
  483       20.071730   0.000000
  484       20.072069   0.000000
  485       20.073057   0.000000
  486       20.110713   0.000000
  487       20.111818   0.000000
  488       20.114329   0.000000
  489       20.205501   0.000000
  490       20.209163   0.000000
  491       20.212526   0.000000
  492       20.368033   0.000000
  493       20.368990   0.000000
  494       20.373920   0.000000
  495       20.442627   0.000000
  496       20.445301   0.000000
  497       20.448415   0.000000
  498       20.629728   0.000000
  499       20.652611   0.000000
  500       20.897461   0.000000
  501       20.989215   0.000000
  502       21.103000   0.000000
  503       21.109827   0.000000
  504       21.120231   0.000000
  505       21.247451   0.000000
  506       21.251985   0.000000
  507       21.290480   0.000000
  508       21.319245   0.000000
  509       21.349204   0.000000
  510       21.372166   0.000000
  511       22.039981   0.000000
  512       22.088873   0.000000
 
  0.4545455E-01 -0.4545455E-01  0.4545455E-01  0.1754386E-01
    1      -19.476665   1.000000
    2      -19.476662   1.000000
    3      -19.476176   1.000000
    4      -19.449064   1.000000
    5      -19.449063   1.000000
    6      -19.447850   1.000000
    7      -19.429456   1.000000
    8      -19.429446   1.000000
    9      -19.428547   1.000000
   10      -19.416505   1.000000
   11      -19.413201   1.000000
   12      -19.404511   1.000000
   13      -19.394836   1.000000
   14      -19.394815   1.000000
   15      -19.389226   1.000000
   16      -19.383586   1.000000
   17      -19.304817   1.000000
   18      -19.303435   1.000000
   19      -19.160776   1.000000
   20      -19.160738   1.000000
   21      -19.158150   1.000000
   22      -19.158020   1.000000
   23      -19.156698   1.000000
   24      -19.152271   1.000000
   25      -19.149717   1.000000
   26      -19.148850   1.000000
   27      -19.148760   1.000000
   28      -19.147603   1.000000
   29      -19.144403   1.000000
   30      -19.144400   1.000000
   31      -19.067546   1.000000
   32      -19.067344   1.000000
   33      -19.066996   1.000000
   34      -19.066983   1.000000
   35      -19.063697   1.000000
   36      -19.063686   1.000000
   37      -15.187956   1.000000
   38      -14.423035   1.000000
   39      -14.396890   1.000000
   40      -14.396882   1.000000
   41      -14.386491   1.000000
   42      -14.370210   1.000000
   43      -14.370185   1.000000
   44      -14.321022   1.000000
   45      -14.283368   1.000000
   46      -14.264542   1.000000
   47      -14.264513   1.000000
   48      -14.225914   1.000000
   49      -13.992858   1.000000
   50      -13.988235   1.000000
   51      -13.964346   1.000000
   52      -13.960054   1.000000
   53      -13.953670   1.000000
   54      -13.882330   1.000000
   55      -13.882325   1.000000
   56      -13.874044   1.000000
   57      -13.859922   1.000000
   58      -13.856117   1.000000
   59      -13.836050   1.000000
   60      -13.836009   1.000000
   61      -13.835548   1.000000
   62      -13.672299   1.000000
   63      -13.672239   1.000000
   64      -13.665816   1.000000
   65      -13.660724   1.000000
   66      -13.657788   1.000000
   67      -13.657194   1.000000
   68      -13.657193   1.000000
   69      -13.652224   1.000000
   70      -13.652160   1.000000
   71      -13.570898   1.000000
   72      -13.570882   1.000000
   73      -13.565882   1.000000
   74      -13.546849   1.000000
   75      -13.546554   1.000000
   76      -13.546533   1.000000
   77      -13.501963   1.000000
   78      -13.498865   1.000000
   79      -13.498858   1.000000
   80      -13.461301   1.000000
   81      -13.457969   1.000000
   82      -13.457913   1.000000
   83      -13.421113   1.000000
   84      -13.420771   1.000000
   85       -9.659985   1.000000
   86       -9.648769   1.000000
   87       -9.648559   1.000000
   88       -9.642777   1.000000
   89       -9.641869   1.000000
   90       -9.641863   1.000000
   91       -9.638876   1.000000
   92       -9.638874   1.000000
   93       -9.637066   1.000000
   94       -9.635498   1.000000
   95       -9.634820   1.000000
   96       -9.634819   1.000000
   97       -9.633447   1.000000
   98       -9.633374   1.000000
   99       -9.633374   1.000000
  100       -9.632096   1.000000
  101       -9.630388   1.000000
  102       -9.629563   1.000000
  103       -9.629562   1.000000
  104       -9.619969   1.000000
  105       -9.619682   1.000000
  106       -9.616051   1.000000
  107       -9.615876   1.000000
  108       -9.611600   1.000000
  109       -9.593098   1.000000
  110       -9.585778   1.000000
  111       -9.585771   1.000000
  112       -9.585108   1.000000
  113       -9.542692   1.000000
  114       -9.485391   1.000000
  115       -9.484494   1.000000
  116       -9.484492   1.000000
  117       -9.476942   1.000000
  118       -9.470011   1.000000
  119       -9.469717   1.000000
  120       -9.469710   1.000000
  121       -9.469055   1.000000
  122       -9.465655   1.000000
  123       -9.465649   1.000000
  124       -9.456444   1.000000
  125       -9.454862   1.000000
  126       -9.454131   1.000000
  127       -9.430834   1.000000
  128       -9.428994   1.000000
  129       -9.428993   1.000000
  130       -9.426289   1.000000
  131       -9.424452   1.000000
  132       -9.424447   1.000000
  133       -9.417445   1.000000
  134       -9.416530   1.000000
  135       -9.416527   1.000000
  136       -9.372586   1.000000
  137       -9.372534   1.000000
  138       -9.372531   1.000000
  139       -9.362089   1.000000
  140       -9.361466   1.000000
  141       -9.361456   1.000000
  142       -9.343623   1.000000
  143       -9.342871   1.000000
  144       -9.342860   1.000000
  145       -4.155218   1.000000
  146       -3.320457   1.000000
  147       -2.989970   1.000000
  148       -2.978056   1.000000
  149       -2.978054   1.000000
  150       -2.854689   1.000000
  151       -2.854685   1.000000
  152       -2.853029   1.000000
  153       -2.603704   1.000000
  154       -2.575249   1.000000
  155       -2.575237   1.000000
  156       -2.241170   1.000000
  157       -2.223193   1.000000
  158       -2.219392   1.000000
  159       -2.190938   1.000000
  160       -2.181286   1.000000
  161       -1.921495   1.000000
  162       -1.392518   1.000000
  163       -1.176479   1.000000
  164       -1.176460   1.000000
  165       -1.166416   1.000000
  166       -1.157419   1.000000
  167       -1.157405   1.000000
  168       -1.143396   1.000000
  169       -0.974970   1.000000
  170       -0.968701   1.000000
  171       -0.912096   1.000000
  172       -0.910855   1.000000
  173       -0.910849   1.000000
  174       -0.909843   1.000000
  175       -0.899325   1.000000
  176       -0.899324   1.000000
  177       -0.800730   1.000000
  178       -0.800719   1.000000
  179       -0.795137   1.000000
  180       -0.767638   1.000000
  181       -0.738742   1.000000
  182       -0.430309   1.000000
  183       -0.430291   1.000000
  184       -0.411675   1.000000
  185       -0.264202   1.000000
  186       -0.250683   1.000000
  187       -0.245279   1.000000
  188       -0.245261   1.000000
  189       -0.220643   1.000000
  190       -0.134847   1.000000
  191       -0.134839   1.000000
  192       -0.120933   1.000000
  193       -0.100892   1.000000
  194       -0.100887   1.000000
  195       -0.084801   1.000000
  196       -0.041972   1.000000
  197       -0.003738   1.000000
  198       -0.003719   1.000000
  199        0.081121   1.000000
  200        0.104873   1.000000
  201        0.104883   1.000000
  202        0.167826   1.000000
  203        0.320776   1.000000
  204        0.382933   1.000000
  205        0.382941   1.000000
  206        0.413688   1.000000
  207        0.470201   1.000000
  208        0.470261   1.000000
  209        0.504175   1.000000
  210        0.528898   1.000000
  211        0.624415   1.000000
  212        0.624428   1.000000
  213        0.664253   1.000000
  214        0.664262   1.000000
  215        0.669980   1.000000
  216        0.671519   1.000000
  217        0.801068   1.000000
  218        0.801076   1.000000
  219        0.828350   1.000000
  220        0.831229   1.000000
  221        0.831373   1.000000
  222        0.870074   1.000000
  223        0.870096   1.000000
  224        0.940872   1.000000
  225        0.964545   1.000000
  226        0.964556   1.000000
  227        1.022218   1.000000
  228        1.039469   1.000000
  229        1.039475   1.000000
  230        1.090475   1.000000
  231        1.102904   1.000000
  232        1.121581   1.000000
  233        1.170869   1.000000
  234        1.187588   1.000000
  235        1.187589   1.000000
  236        1.459920   1.000000
  237        1.471128   1.000000
  238        1.471143   1.000000
  239        1.495807   1.000000
  240        1.514944   1.000000
  241        1.588883   1.000000
  242        1.597415   1.000000
  243        1.597415   1.000000
  244        1.599228   1.000000
  245        1.646689   1.000000
  246        1.646695   1.000000
  247        1.719138   1.000000
  248        1.754341   1.000000
  249        1.758044   1.000000
  250        1.771641   1.000000
  251        1.771657   1.000000
  252        1.835561   1.000000
  253        1.835602   1.000000
  254        1.843617   1.000000
  255        1.904892   1.000000
  256        1.921608   1.000000
  257        1.921619   1.000000
  258        1.924928   1.000000
  259        1.933911   1.000000
  260        1.933917   1.000000
  261        1.967569   1.000000
  262        2.003939   1.000000
  263        2.004371   1.000000
  264        2.095764   1.000000
  265        2.095783   1.000000
  266        2.101606   1.000000
  267        2.102633   1.000000
  268        2.109248   1.000000
  269        2.118490   1.000000
  270        2.118498   1.000000
  271        2.143354   1.000000
  272        2.156590   1.000000
  273        2.156608   1.000000
  274        2.168619   1.000000
  275        2.317026   1.000000
  276        2.317031   1.000000
  277        2.322701   1.000000
  278        2.345860   1.000000
  279        2.353309   1.000000
  280        2.359625   1.000000
  281        2.359625   1.000000
  282        2.408510   1.000000
  283        2.412270   1.000000
  284        2.412304   1.000000
  285        2.423390   1.000000
  286        2.630643   1.000000
  287        2.647672   1.000000
  288        2.647693   1.000000
  289        6.477095   0.000000
  290        7.624265   0.000000
  291        7.981676   0.000000
  292        8.434592   0.000000
  293        8.434599   0.000000
  294        8.466477   0.000000
  295        8.574652   0.000000
  296        8.601940   0.000000
  297        8.601949   0.000000
  298        8.707141   0.000000
  299        8.724993   0.000000
  300        8.806582   0.000000
  301        8.806604   0.000000
  302        8.826241   0.000000
  303        9.016424   0.000000
  304        9.018235   0.000000
  305        9.018277   0.000000
  306        9.059303   0.000000
  307        9.274981   0.000000
  308        9.285385   0.000000
  309        9.285408   0.000000
  310        9.334902   0.000000
  311        9.339741   0.000000
  312        9.366108   0.000000
  313        9.366181   0.000000
  314        9.373479   0.000000
  315        9.485327   0.000000
  316        9.485422   0.000000
  317        9.488599   0.000000
  318        9.786954   0.000000
  319        9.787016   0.000000
  320        9.792681   0.000000
  321        9.991767   0.000000
  322       10.016948   0.000000
  323       10.101330   0.000000
  324       10.101789   0.000000
  325       10.283067   0.000000
  326       10.283094   0.000000
  327       10.301803   0.000000
  328       10.466315   0.000000
  329       10.466330   0.000000
  330       10.471715   0.000000
  331       10.754851   0.000000
  332       10.763958   0.000000
  333       10.881895   0.000000
  334       10.881909   0.000000
  335       10.882769   0.000000
  336       10.887290   0.000000
  337       10.984274   0.000000
  338       10.988101   0.000000
  339       11.331894   0.000000
  340       11.331919   0.000000
  341       11.332008   0.000000
  342       11.388131   0.000000
  343       11.399902   0.000000
  344       11.399919   0.000000
  345       11.455005   0.000000
  346       11.481857   0.000000
  347       11.481857   0.000000
  348       11.512720   0.000000
  349       11.594654   0.000000
  350       11.596774   0.000000
  351       11.596774   0.000000
  352       11.747977   0.000000
  353       11.752144   0.000000
  354       11.752182   0.000000
  355       11.933417   0.000000
  356       11.933418   0.000000
  357       11.950341   0.000000
  358       12.098186   0.000000
  359       12.167911   0.000000
  360       12.179676   0.000000
  361       12.248551   0.000000
  362       12.259062   0.000000
  363       12.279139   0.000000
  364       12.362497   0.000000
  365       12.396093   0.000000
  366       12.396160   0.000000
  367       12.396558   0.000000
  368       12.672625   0.000000
  369       12.672655   0.000000
  370       12.720460   0.000000
  371       12.720477   0.000000
  372       12.728655   0.000000
  373       12.732634   0.000000
  374       12.736981   0.000000
  375       12.774056   0.000000
  376       12.774079   0.000000
  377       12.804558   0.000000
  378       12.991549   0.000000
  379       13.068640   0.000000
  380       13.068652   0.000000
  381       13.084030   0.000000
  382       13.190753   0.000000
  383       13.228816   0.000000
  384       13.459510   0.000000
  385       13.459516   0.000000
  386       13.477414   0.000000
  387       13.559261   0.000000