       N       E                     dE             d eps       ncg     rms          rms(c)
DAV:   1     0.623218326258E+04    0.62322E+04   -0.23007E+05 90816   0.176E+03
DAV:   2     0.416206145707E+03   -0.58160E+04   -0.51746E+04 91200   0.594E+02
DAV:   3    -0.541874913049E+03   -0.95808E+03   -0.92670E+03 96384   0.219E+02
DAV:   4    -0.587599613559E+03   -0.45725E+02   -0.45551E+02 97024   0.393E+01
DAV:   5    -0.588184985304E+03   -0.58537E+00   -0.58502E+00 70784   0.447E+00
DAV:   6    -0.588270456583E+03   -0.85471E-01   -0.85467E-01107072   0.235E+00
DAV:   7    -0.588270839171E+03   -0.38259E-03   -0.38257E-03 54848   0.107E-01
   1 F= -.58827084E+03 E0= -.58827084E+03  d E =0.000000E+00
