 vasp.5.4.3 09Sep16 (build Apr 12 2017 11:03:34) complex                        
  
 executed on      IFC17_CrayMPICH date 2017.06.05  04:02:42
 running   64 mpi-ranks, with    8 threads/rank
 distrk:  each k-point on   64 cores,    1 groups
 distr:  one band on NCORES_PER_BAND=   1 cores,   64 groups


--------------------------------------------------------------------------------------------------------


 INCAR:
 POTCAR:   PAW_PBE Er_3 06Sep2000                 
 POTCAR:   PAW_PBE Al 04Jan2001                   
 POTCAR:   PAW_PBE Ga_d 06Sep2000                 
 POTCAR:   PAW_PBE O 08Apr2002                    

 ----------------------------------------------------------------------------- 
|                                                                             |
|           W    W    AA    RRRRR   N    N  II  N    N   GGGG   !!!           |
|           W    W   A  A   R    R  NN   N  II  NN   N  G    G  !!!           |
|           W    W  A    A  R    R  N N  N  II  N N  N  G       !!!           |
|           W WW W  AAAAAA  RRRRR   N  N N  II  N  N N  G  GGG   !            |
|           WW  WW  A    A  R   R   N   NN  II  N   NN  G    G                |
|           W    W  A    A  R    R  N    N  II  N    N   GGGG   !!!           |
|                                                                             |
|      For optimal performance we recommend to set                            |
|        NCORE= 4 - approx SQRT( number of cores)                             |
|      NCORE specifies how many cores store one orbital (NPAR=cpu/NCORE).     |
|      This setting can  greatly improve the performance of VASP for DFT.     |
|      The default,   NCORE=1            might be grossly inefficient         |
|      on modern multi-core architectures or massively parallel machines.     |
|      Do your own testing !!!!                                               |
|      Unfortunately you need to use the default for GW and RPA calculations. |
|      (for HF NCORE is supported but not extensively tested yet)             |
|                                                                             |
 ----------------------------------------------------------------------------- 

 POTCAR:   PAW_PBE Er_3 06Sep2000                 
   VRHFIN =Er : [core=Xe4]                                                      
   LEXCH  = PE                                                                  
   EATOM  =   671.8481 eV,   49.3794 Ry                                         
                                                                                
   TITEL  = PAW_PBE Er_3 06Sep2000                                              
   LULTRA =        F    use ultrasoft PP ?                                      
   IUNSCR =        1    unscreen: 0-lin 1-nonlin 2-no                           
   RPACOR =    2.300    partial core radius                                     
   POMASS =  167.260; ZVAL   =    9.000    mass and valenz                      
   RCORE  =    3.000    outmost cutoff radius                                   
   RWIGS  =    3.000; RWIGS  =    1.588    wigner-seitz radius (au A)           
   ENMAX  =  155.053; ENMIN  =  116.290 eV                                      
   RCLOC  =    2.308    cutoff for local pot                                    
   LCOR   =        T    correct aug charges                                     
   LPAW   =        T    paw PP                                                  
   EAUG   =  307.908                                                            
   DEXC   =    -.035                                                            
   RMAX   =    3.703    core radius for proj-oper                               
   RAUG   =    1.300    factor for augmentation sphere                          
   RDEP   =    3.178    radius for radial grids                                 
   QCUT   =   -3.376; QGAM   =    6.752    optimization parameters              
                                                                                
   Description                                                                  
     l     E      TYP  RCUT    TYP  RCUT                                        
     0   .000     23  3.000                                                     
     0   .800     23  3.000                                                     
     1   .000     23  3.000                                                     
     1   .000     23  3.000                                                     
     2   .000     23  3.000                                                     
     2   .000     23  3.000                                                     
  local pseudopotential read in
  partial core-charges read in
  atomic valenz-charges read in
  non local Contribution for L=           0  read in
    real space projection operators read in
  non local Contribution for L=           0  read in
    real space projection operators read in
  non local Contribution for L=           1  read in
    real space projection operators read in
  non local Contribution for L=           1  read in
    real space projection operators read in
  non local Contribution for L=           2  read in
    real space projection operators read in
  non local Contribution for L=           2  read in
    real space projection operators read in
    PAW grid and wavefunctions read in
 
   number of l-projection  operators is LMAX  =           6
   number of lm-projection operators is LMMAX =          18
 
 POTCAR:   PAW_PBE Al 04Jan2001                   
   VRHFIN =Al: s2p1                                                             
   LEXCH  = PE                                                                  
   EATOM  =    53.5387 eV,    3.9350 Ry                                         
                                                                                
   TITEL  = PAW_PBE Al 04Jan2001                                                
   LULTRA =        F    use ultrasoft PP ?                                      
   IUNSCR =        1    unscreen: 0-lin 1-nonlin 2-no                           
   RPACOR =    1.500    partial core radius                                     
   POMASS =   26.982; ZVAL   =    3.000    mass and valenz                      
   RCORE  =    1.900    outmost cutoff radius                                   
   RWIGS  =    2.650; RWIGS  =    1.402    wigner-seitz radius (au A)           
   ENMAX  =  240.300; ENMIN  =  180.225 eV                                      
   ICORE  =        2    local potential                                         
   LCOR   =        T    correct aug charges                                     
   LPAW   =        T    paw PP                                                  
   EAUG   =  291.052                                                            
   DEXC   =    -.041                                                            
   RMAX   =    2.974    core radius for proj-oper                               
   RAUG   =    1.300    factor for augmentation sphere                          
   RDEP   =    1.966    radius for radial grids                                 
   QCUT   =   -4.203; QGAM   =    8.405    optimization parameters              
                                                                                
   Description                                                                  
     l     E      TYP  RCUT    TYP  RCUT                                        
     0   .000     23  1.900                                                     
     0   .000     23  1.900                                                     
     1   .000     23  1.900                                                     
     1  1.000     23  1.900                                                     
     2   .000      7  1.900                                                     
  local pseudopotential read in
  partial core-charges read in
  atomic valenz-charges read in
  non local Contribution for L=           0  read in
    real space projection operators read in
  non local Contribution for L=           0  read in
    real space projection operators read in
  non local Contribution for L=           1  read in
    real space projection operators read in
  non local Contribution for L=           1  read in
    real space projection operators read in
    PAW grid and wavefunctions read in
 
   number of l-projection  operators is LMAX  =           4
   number of lm-projection operators is LMMAX =           8
 
 POTCAR:   PAW_PBE Ga_d 06Sep2000                 
   VRHFIN =Ga: s2p1                                                             
   LEXCH  = PE                                                                  
   EATOM  =  2149.0616 eV,  157.9516 Ry                                         
                                                                                
   TITEL  = PAW_PBE Ga_d 06Sep2000                                              
   LULTRA =        F    use ultrasoft PP ?                                      
   IUNSCR =        1    unscreen: 0-lin 1-nonlin 2-no                           
   RPACOR =    2.000    partial core radius                                     
   POMASS =   69.723; ZVAL   =   13.000    mass and valenz                      
   RCORE  =    2.300    outmost cutoff radius                                   
   RWIGS  =    2.300; RWIGS  =    1.217    wigner-seitz radius (au A)           
   ENMAX  =  282.697; ENMIN  =  212.022 eV                                      
   ICORE  =        3    local potential                                         
   LCOR   =        T    correct aug charges                                     
   LPAW   =        T    paw PP                                                  
   EAUG   =  490.690                                                            
   DEXC   =    -.001                                                            
   RMAX   =    2.742    core radius for proj-oper                               
   RAUG   =    1.300    factor for augmentation sphere                          
   RDEP   =    2.413    radius for radial grids                                 
   QCUT   =   -4.558; QGAM   =    9.117    optimization parameters              
                                                                                
   Description                                                                  
     l     E      TYP  RCUT    TYP  RCUT                                        
     2   .000     23  2.300                                                     
     2  -.400     23  2.300                                                     
     0   .000     23  2.300                                                     
     0   .000     23  2.300                                                     
     1   .000     23  2.300                                                     
     1   .000     23  2.300                                                     
     3  -.100      7  2.300                                                     
  local pseudopotential read in
  partial core-charges read in
  atomic valenz-charges read in
  non local Contribution for L=           2  read in
    real space projection operators read in
  non local Contribution for L=           2  read in
    real space projection operators read in
  non local Contribution for L=           0  read in
    real space projection operators read in
  non local Contribution for L=           0  read in
    real space projection operators read in
  non local Contribution for L=           1  read in
    real space projection operators read in
  non local Contribution for L=           1  read in
    real space projection operators read in
    PAW grid and wavefunctions read in
 
   number of l-projection  operators is LMAX  =           6
   number of lm-projection operators is LMMAX =          18
 
 POTCAR:   PAW_PBE O 08Apr2002                    
   VRHFIN =O: s2p4                                                              
   LEXCH  = PE                                                                  
   EATOM  =   432.3788 eV,   31.7789 Ry                                         
                                                                                
   TITEL  = PAW_PBE O 08Apr2002                                                 
   LULTRA =        F    use ultrasoft PP ?                                      
   IUNSCR =        0    unscreen: 0-lin 1-nonlin 2-no                           
   RPACOR =     .000    partial core radius                                     
   POMASS =   16.000; ZVAL   =    6.000    mass and valenz                      
   RCORE  =    1.520    outmost cutoff radius                                   
   RWIGS  =    1.550; RWIGS  =     .820    wigner-seitz radius (au A)           
   ENMAX  =  400.000; ENMIN  =  300.000 eV                                      
   ICORE  =        2    local potential                                         
   LCOR   =        T    correct aug charges                                     
   LPAW   =        T    paw PP                                                  
   EAUG   =  605.392                                                            
   DEXC   =     .000                                                            
   RMAX   =    2.264    core radius for proj-oper                               
   RAUG   =    1.300    factor for augmentation sphere                          
   RDEP   =    1.550    radius for radial grids                                 
   QCUT   =   -5.520; QGAM   =   11.041    optimization parameters              
                                                                                
   Description                                                                  
     l     E      TYP  RCUT    TYP  RCUT                                        
     0   .000     23  1.200                                                     
     0  -.700     23  1.200                                                     
     1   .000     23  1.520                                                     
     1   .600     23  1.520                                                     
     2   .000      7  1.500                                                     
  local pseudopotential read in
  atomic valenz-charges read in
  non local Contribution for L=           0  read in
    real space projection operators read in
  non local Contribution for L=           0  read in
    real space projection operators read in
  non local Contribution for L=           1  read in
    real space projection operators read in
  non local Contribution for L=           1  read in
    real space projection operators read in
    PAW grid and wavefunctions read in
 
   number of l-projection  operators is LMAX  =           4
   number of lm-projection operators is LMMAX =           8
 
 Optimization of the real space projectors (new method)

 maximal supplied QI-value         = 12.47
 optimisation between [QCUT,QGAM] = [ 11.60, 23.32] = [ 37.68,152.32] Ry 
 Optimized for a Real-space Cutoff    1.83 Angstroem

   l    n(q)    QCUT    max X(q) W(low)/X(q) W(high)/X(q)  e(spline) 
   0     13    11.599    26.534    0.17E-04    0.24E-06    0.41E-07
   0     13    11.599    46.083    0.23E-04    0.40E-05    0.56E-06
   1     12    11.599     6.984    0.61E-06    0.74E-06    0.89E-07
   1     12    11.599     8.834    0.64E-05    0.14E-04    0.11E-05
   2     12    11.599     5.077    0.92E-05    0.44E-05    0.70E-07
   2     12    11.599   219.387    0.23E-03    0.44E-04    0.18E-05
 Optimization of the real space projectors (new method)

 maximal supplied QI-value         = 19.84
 optimisation between [QCUT,QGAM] = [ 11.51, 23.22] = [ 37.09,150.92] Ry 
 Optimized for a Real-space Cutoff    1.18 Angstroem

   l    n(q)    QCUT    max X(q) W(low)/X(q) W(high)/X(q)  e(spline) 
   0      8    11.508    13.410    0.14E-04    0.92E-05    0.50E-08
   0      8    11.508   140.052    0.11E-03    0.16E-03    0.39E-07
   1      8    11.508     9.624    0.12E-04    0.31E-04    0.22E-07
   1      8    11.508    53.353    0.21E-03    0.91E-04    0.68E-07
 Optimization of the real space projectors (new method)

 maximal supplied QI-value         = 16.25
 optimisation between [QCUT,QGAM] = [ 11.54, 23.24] = [ 37.28,151.24] Ry 
 Optimized for a Real-space Cutoff    1.28 Angstroem

   l    n(q)    QCUT    max X(q) W(low)/X(q) W(high)/X(q)  e(spline) 
   2      8    11.539     6.328    0.71E-04    0.10E-03    0.17E-07
   2      8    11.539     9.625    0.13E-03    0.37E-03    0.17E-06
   0      9    11.539     9.711    0.22E-04    0.17E-04    0.10E-07
   0      9    11.539    32.764    0.11E-03    0.16E-03    0.65E-07
   1      8    11.539     7.413    0.41E-04    0.24E-04    0.39E-07
   1      8    11.539    31.472    0.22E-03    0.35E-04    0.14E-06
 Optimization of the real space projectors (new method)

 maximal supplied QI-value         = 24.76
 optimisation between [QCUT,QGAM] = [ 11.64, 23.27] = [ 37.91,151.63] Ry 
 Optimized for a Real-space Cutoff    1.08 Angstroem

   l    n(q)    QCUT    max X(q) W(low)/X(q) W(high)/X(q)  e(spline) 
   0      7    11.635     4.192    0.54E-04    0.80E-04    0.26E-07
   0      7    11.635     8.473    0.70E-04    0.40E-03    0.21E-06
   1      7    11.635     2.474    0.39E-04    0.14E-03    0.23E-07
   1      7    11.635     3.912    0.25E-03    0.37E-03    0.22E-06
 PAW_PBE Er_3 06Sep2000                 :
 energy of atom  1       EATOM= -671.8481
 kinetic energy error for atom=    0.0002 (will be added to EATOM!!)
 PAW_PBE Al 04Jan2001                   :
 energy of atom  2       EATOM=  -53.5387
 kinetic energy error for atom=    0.0002 (will be added to EATOM!!)
 PAW_PBE Ga_d 06Sep2000                 :
 energy of atom  3       EATOM=-2149.0616
 kinetic energy error for atom=    0.0026 (will be added to EATOM!!)
 PAW_PBE O 08Apr2002                    :
 energy of atom  4       EATOM= -432.3788
 kinetic energy error for atom=    0.0208 (will be added to EATOM!!)
 
 
 POSCAR: Er12 Al8 Ga12 O48                       
  positions in direct lattice
  No initial velocities read in
 exchange correlation table for  LEXCH =        8
   RHO(1)=    0.500       N(1)  =     2000
   RHO(2)=  100.500       N(2)  =     4000
 


--------------------------------------------------------------------------------------------------------


 ion  position               nearest neighbor table
   1  0.250  0.875  0.625-  39 2.32  50 2.32  51 2.32  41 2.32  54 2.44  47 2.44  35 2.44  49 2.44
                            21 3.05  32 3.05  16 3.41  18 3.41  17 3.41  15 3.41   5 3.74   2 3.74
   2  0.875  0.625  0.250-  34 2.32  45 2.32  49 2.32  53 2.32  44 2.44  33 2.44  46 2.44  51 2.44
                            24 3.05  29 3.05  18 3.41  16 3.41  19 3.41  14 3.41   5 3.74   4 3.74
   3  0.625  0.875  0.750-  42 2.32  80 2.32  47 2.32  38 2.32  43 2.44  36 2.44  48 2.44  50 2.44
                            26 3.05  28 3.05  13 3.41  15 3.41  17 3.41  20 3.41   5 3.74   6 3.74
   4  0.875  0.750  0.625-  44 2.32  40 2.32  54 2.32  43 2.32  38 2.44  56 2.44  34 2.44  39 2.44
                            25 3.05  31 3.05  16 3.41  18 3.41  20 3.41  13 3.41   2 3.74   6 3.74
   5  0.625  0.250  0.875-  48 2.32  55 2.32  35 2.32  46 2.32  80 2.44  37 2.44  53 2.44  41 2.44
                            23 3.05  30 3.05  14 3.41  15 3.41  17 3.41  19 3.41   3 3.74   6 3.74
   6  0.750  0.625  0.875-  36 2.32  37 2.32  56 2.32  33 2.32  40 2.44  42 2.44  55 2.44  45 2.44
                            22 3.05  27 3.05  20 3.41  19 3.41  13 3.41  14 3.41   5 3.74   3 3.74
   7  0.750  0.125  0.375-  63 2.32  71 2.32  70 2.32  52 2.32  67 2.44  74 2.44  59 2.44  72 2.44
                            22 3.05  27 3.05  16 3.41  18 3.41  17 3.41  15 3.41  11 3.74   8 3.74
   8  0.125  0.375  0.750-  58 2.32  76 2.32  72 2.32  69 2.32  77 2.44  57 2.44  75 2.44  70 2.44
                            26 3.05  28 3.05  18 3.41  16 3.41  19 3.41  14 3.41  11 3.74  10 3.74
   9  0.375  0.125  0.250-  79 2.32  68 2.32  74 2.32  62 2.32  78 2.44  60 2.44  73 2.44  71 2.44
                            24 3.05  29 3.05  13 3.41  15 3.41  17 3.41  20 3.41  11 3.74  12 3.74
  10  0.125  0.250  0.375-  77 2.32  64 2.32  67 2.32  78 2.32  62 2.44  65 2.44  58 2.44  63 2.44
                            23 3.05  30 3.05  16 3.41  18 3.41  20 3.41  13 3.41   8 3.74  12 3.74
  11  0.375  0.750  0.125-  73 2.32  66 2.32  59 2.32  75 2.32  68 2.44  61 2.44  69 2.44  52 2.44
                            25 3.05  31 3.05  14 3.41  15 3.41  17 3.41  19 3.41   9 3.74  12 3.74
  12  0.250  0.375  0.125-  60 2.32  61 2.32  65 2.32  57 2.32  64 2.44  79 2.44  66 2.44  76 2.44
                            21 3.05  32 3.05  20 3.41  19 3.41  13 3.41  14 3.41  11 3.74   9 3.74
  13  0.500  0.500  0.500-  43 1.94  78 1.94  42 1.94  79 1.94  56 1.94  65 1.94   3 3.41   9 3.41
                             6 3.41  12 3.41  10 3.41   4 3.41
  14  0.500  0.500  0.000-  33 1.94  57 1.94  55 1.94  66 1.94  53 1.94  69 1.94   5 3.41  11 3.41
                             6 3.41  12 3.41   2 3.41   8 3.41
  15  0.500  0.000  0.500-  68 1.94  80 1.94  71 1.94  50 1.94  59 1.94  35 1.94   5 3.41  11 3.41
                             9 3.41   3 3.41   1 3.41   7 3.41
  16  0.000  0.500  0.500-  54 1.94  67 1.94  58 1.94  34 1.94  51 1.94  70 1.94   1 3.41   7 3.41
                             4 3.41  10 3.41   8 3.41   2 3.41
  17  0.500  0.000  0.000-  47 1.94  74 1.94  73 1.94  48 1.94  41 1.94  52 1.94   5 3.41  11 3.41
                             9 3.41   3 3.41   1 3.41   7 3.41
  18  0.000  0.000  0.500-  44 1.94  77 1.94  63 1.94  39 1.94  72 1.94  49 1.94   2 3.41   8 3.41
                             4 3.41  10 3.41   1 3.41   7 3.41
  19  0.000  0.500  0.000-  37 1.94  61 1.94  45 1.94  76 1.94  75 1.94  46 1.94   2 3.41   8 3.41
                             6 3.41  12 3.41  11 3.41   5 3.41
  20  0.000  0.000  0.000-  40 1.94  64 1.94  62 1.94  38 1.94  36 1.94  60 1.94   6 3.41  12 3.41
                            10 3.41   4 3.41   3 3.41   9 3.41
  21  0.250  0.125  0.875-  41 1.86  39 1.86  57 1.86  60 1.86   1 3.05  12 3.05
  22  0.750  0.875  0.125-  52 1.86  63 1.86  33 1.86  36 1.86   6 3.05   7 3.05
  23  0.375  0.250  0.625-  35 1.86  55 1.86  78 1.86  77 1.86   5 3.05  10 3.05
  24  0.625  0.375  0.250-  53 1.86  34 1.86  74 1.86  79 1.86   2 3.05   9 3.05
  25  0.125  0.750  0.875-  75 1.86  73 1.86  54 1.86  40 1.86   4 3.05  11 3.05
  26  0.875  0.125  0.750-  72 1.86  76 1.86  38 1.86  80 1.86   3 3.05   8 3.05
  27  0.750  0.375  0.625-  70 1.86  71 1.86  56 1.86  37 1.86   6 3.05   7 3.05
  28  0.375  0.625  0.750-  69 1.86  58 1.86  47 1.86  42 1.86   3 3.05   8 3.05
  29  0.125  0.875  0.250-  49 1.86  45 1.86  62 1.86  68 1.86   2 3.05   9 3.05
  30  0.875  0.250  0.125-  46 1.86  48 1.86  67 1.86  64 1.86   5 3.05  10 3.05
  31  0.625  0.750  0.375-  59 1.86  66 1.86  43 1.86  44 1.86   4 3.05  11 3.05
  32  0.250  0.625  0.375-  51 1.86  50 1.86  65 1.86  61 1.86   1 3.05  12 3.05
  33  0.701  0.674  0.080-  22 1.86  14 1.94   6 2.32   2 2.44
  34  0.826  0.527  0.406-  24 1.86  16 1.94   2 2.32   4 2.44
  35  0.420  0.094  0.621-  23 1.86  15 1.94   5 2.32   1 2.44
  36  0.799  0.879  0.973-  22 1.86  20 1.94   6 2.32   3 2.44
  37  0.799  0.420  0.826-  27 1.86  19 1.94   6 2.32   5 2.44
  38  0.879  0.973  0.799-  26 1.86  20 1.94   3 2.32   4 2.44
  39  0.094  0.973  0.674-  21 1.86  18 1.94   1 2.32   4 2.44
  40  0.973  0.799  0.879-  25 1.86  20 1.94   4 2.32   6 2.44
  41  0.406  0.080  0.879-  21 1.86  17 1.94   1 2.32   5 2.44
  42  0.527  0.621  0.701-  28 1.86  13 1.94   3 2.32   6 2.44
  43  0.621  0.701  0.527-  31 1.86  13 1.94   4 2.32   3 2.44
  44  0.826  0.799  0.420-  31 1.86  18 1.94   4 2.32   2 2.44
  45  0.973  0.674  0.094-  29 1.86  19 1.94   2 2.32   6 2.44
  46  0.879  0.406  0.080-  30 1.86  19 1.94   5 2.32   2 2.44
  47  0.420  0.826  0.799-  28 1.86  17 1.94   3 2.32   1 2.44
  48  0.674  0.094  0.973-  30 1.86  17 1.94   5 2.32   3 2.44
  49  0.080  0.879  0.406-  29 1.86  18 1.94   2 2.32   1 2.44
  50  0.406  0.826  0.527-  32 1.86  15 1.94   1 2.32   3 2.44
  51  0.094  0.621  0.420-  32 1.86  16 1.94   1 2.32   2 2.44
  52  0.594  0.920  0.121-  22 1.86  17 1.94   7 2.32  11 2.44
  53  0.621  0.420  0.094-  24 1.86  14 1.94   2 2.32   5 2.44
  54  0.080  0.701  0.674-  25 1.86  16 1.94   4 2.32   1 2.44
  55  0.527  0.406  0.826-  23 1.86  14 1.94   5 2.32   6 2.44
  56  0.701  0.527  0.621-  27 1.86  13 1.94   6 2.32   4 2.44
  57  0.299  0.326  0.920-  21 1.86  14 1.94  12 2.32   8 2.44
  58  0.174  0.473  0.594-  28 1.86  16 1.94   8 2.32  10 2.44
  59  0.580  0.906  0.379-  31 1.86  15 1.94  11 2.32   7 2.44
  60  0.201  0.121  0.027-  21 1.86  20 1.94  12 2.32   9 2.44
  61  0.201  0.580  0.174-  32 1.86  19 1.94  12 2.32  11 2.44
  62  0.121  0.027  0.201-  29 1.86  20 1.94   9 2.32  10 2.44
  63  0.906  0.027  0.326-  22 1.86  18 1.94   7 2.32  10 2.44
  64  0.027  0.201  0.121-  30 1.86  20 1.94  10 2.32  12 2.44
  65  0.299  0.473  0.379-  32 1.86  13 1.94  12 2.32  10 2.44
  66  0.473  0.594  0.174-  31 1.86  14 1.94  11 2.32  12 2.44
  67  0.920  0.299  0.326-  30 1.86  16 1.94  10 2.32   7 2.44
  68  0.326  0.920  0.299-  29 1.86  15 1.94   9 2.32  11 2.44
  69  0.379  0.580  0.906-  28 1.86  14 1.94   8 2.32  11 2.44
  70  0.906  0.379  0.580-  27 1.86  16 1.94   7 2.32   8 2.44
  71  0.594  0.174  0.473-  27 1.86  15 1.94   7 2.32   9 2.44
  72  0.920  0.121  0.594-  26 1.86  18 1.94   8 2.32   7 2.44
  73  0.326  0.906  0.027-  25 1.86  17 1.94  11 2.32   9 2.44
  74  0.580  0.174  0.201-  24 1.86  17 1.94   9 2.32   7 2.44
  75  0.121  0.594  0.920-  25 1.86  19 1.94  11 2.32   8 2.44
  76  0.027  0.326  0.906-  26 1.86  19 1.94   8 2.32  12 2.44
  77  0.174  0.201  0.580-  23 1.86  18 1.94  10 2.32   8 2.44
  78  0.379  0.299  0.473-  23 1.86  13 1.94  10 2.32   9 2.44
  79  0.473  0.379  0.299-  24 1.86  13 1.94   9 2.32  12 2.44
  80  0.674  0.080  0.701-  26 1.86  15 1.94   3 2.32   5 2.44
 

IMPORTANT INFORMATION: All symmetrisations will be switched off!
NOSYMM: (Re-)initialisation of all symmetry stuff for point group C_1.

 
 
 KPOINTS: Non SCF run along symmetry lines        
  k-points in reciprocal lattice
Space group operators:
 irot       det(A)        alpha          n_x          n_y          n_z        tau_x        tau_y        tau_z
    1     1.000000     0.000001     1.000000     0.000000     0.000000     0.000000     0.000000     0.000000

 ----------------------------------------------------------------------------- 
|                                                                             |
|           W    W    AA    RRRRR   N    N  II  N    N   GGGG   !!!           |
|           W    W   A  A   R    R  NN   N  II  NN   N  G    G  !!!           |
|           W    W  A    A  R    R  N N  N  II  N N  N  G       !!!           |
|           W WW W  AAAAAA  RRRRR   N  N N  II  N  N N  G  GGG   !            |
|           WW  WW  A    A  R   R   N   NN  II  N   NN  G    G                |
|           W    W  A    A  R    R  N    N  II  N    N   GGGG   !!!           |
|                                                                             |
|      The number of bands has been changed from the values supplied          |
|      in the INCAR file. This is a result of running the parallel version.   |
|      The orbitals not found in the WAVECAR file will be initialized with    |
|      random numbers, which is usually adequate. For correlated              |
|      calculations, however, you should redo the groundstate calculation.    |
|      I found NBANDS    =      461  now  NBANDS  =     512                   |
|                                                                             |
 ----------------------------------------------------------------------------- 



--------------------------------------------------------------------------------------------------------




 Dimension of arrays:
   k-points           NKPTS =     57   k-points in BZ     NKDIM =     57   number of bands    NBANDS=    512
   number of dos      NEDOS =    301   number of ions     NIONS =     80
   non local maximal  LDIM  =      6   non local SUM 2l+1 LMDIM =     18
   total plane-waves  NPLWV = 512000
   max r-space proj   IRMAX =  14536   max aug-charges    IRDMAX=  43117
   dimension x,y,z NGX =    80 NGY =   80 NGZ =   80
   dimension x,y,z NGXF=   160 NGYF=  160 NGZF=  160
   support grid    NGXF=   160 NGYF=  160 NGZF=  160
   ions per type =              12   8  12  48
 NGX,Y,Z   is equivalent  to a cutoff of  12.58, 12.58, 12.58 a.u.
 NGXF,Y,Z  is equivalent  to a cutoff of  25.16, 25.16, 25.16 a.u.


 I would recommend the setting:
   dimension x,y,z NGX =    79 NGY =   79 NGZ =   79
 SYSTEM =  unknown system                          
 POSCAR =  Er12 Al8 Ga12 O48                       

 Startparameter for this run:
   NWRITE =      2    write-flag & timer
   PREC   = accura    normal or accurate (medium, high low for compatibility)
   ISTART =      0    job   : 0-new  1-cont  2-samecut
   ICHARG =     11    charge: 1-file 2-atom 10-const
   ISPIN  =      1    spin polarized calculation?
   LNONCOLLINEAR =      F non collinear calculations
   LSORBIT =      F    spin-orbit coupling
   INIWAV =      1    electr: 0-lowe 1-rand  2-diag
   LASPH  =      T    aspherical Exc in radial PAW
   METAGGA=      F    non-selfconsistent MetaGGA calc.

 Electronic Relaxation 1
   ENCUT  =  520.0 eV  38.22 Ry    6.18 a.u.  19.66 19.66 19.66*2*pi/ulx,y,z
   ENINI  =  520.0     initial cutoff
   ENAUG  =  605.4 eV  augmentation charge cutoff
   NELM   =    100;   NELMIN=  5; NELMDL=  0     # of ELM steps 
   EDIFF  = 0.4E-02   stopping-criterion for ELM
   LREAL  =      T    real-space projection
   NLSPLINE    = F    spline interpolate recip. space projectors
   LCOMPAT=      F    compatible to vasp.4.4
   GGA_COMPAT  = T    GGA compatible to vasp.4.4-vasp.4.6
   LMAXPAW     = -100 max onsite density
   LMAXMIX     =    2 max onsite mixed and CHGCAR
   VOSKOWN=      0    Vosko Wilk Nusair interpolation
   ROPT   =   -0.00025  -0.00025  -0.00025  -0.00025
 Ionic relaxation
   EDIFFG = 0.4E-01   stopping-criterion for IOM
   NSW    =      0    number of steps for IOM
   NBLOCK =      1;   KBLOCK =      1    inner block; outer block 
   IBRION =     -1    ionic relax: 0-MD 1-quasi-New 2-CG
   NFREE  =      0    steps in history (QN), initial steepest desc. (CG)
   ISIF   =      3    stress and relaxation
   IWAVPR =     10    prediction:  0-non 1-charg 2-wave 3-comb
   ISYM   =      0    0-nonsym 1-usesym 2-fastsym
   LCORR  =      T    Harris-Foulkes like correction to forces

   POTIM  = 0.5000    time-step for ionic-motion
   TEIN   =    0.0    initial temperature
   TEBEG  =    0.0;   TEEND  =   0.0 temperature during run
   SMASS  =  -3.00    Nose mass-parameter (am)
   estimated Nose-frequenzy (Omega)   =  0.10E-29 period in steps =****** mass=  -0.255E-26a.u.
   SCALEE = 1.0000    scale energy and forces
   NPACO  =    256;   APACO  = 16.0  distance and # of slots for P.C.
   PSTRESS=    0.0 pullay stress

  Mass of Ions in am
   POMASS = 167.26 26.98 69.72 16.00
  Ionic Valenz
   ZVAL   =   9.00  3.00 13.00  6.00
  Atomic Wigner-Seitz radii
   RWIGS  =  -1.00 -1.00 -1.00 -1.00
  virtual crystal weights 
   VCA    =   1.00  1.00  1.00  1.00
   NELECT =     576.0000    total number of electrons
   NUPDOWN=      -1.0000    fix difference up-down

 DOS related values:
   EMIN   =  10.00;   EMAX   =-10.00  energy-range for DOS
   EFERMI =   0.00
   ISMEAR =     0;   SIGMA  =   0.00  broadening in eV -4-tet -1-fermi 0-gaus

 Electronic relaxation 2 (details)
   IALGO  =     38    algorithm
   LDIAG  =      T    sub-space diagonalisation (order eigenvalues)
   LSUBROT=      F    optimize rotation matrix (better conditioning)
   TURBO    =      0    0=normal 1=particle mesh
   IRESTART =      0    0=no restart 2=restart with 2 vectors
   NREBOOT  =      0    no. of reboots
   NMIN     =      0    reboot dimension
   EREF     =   0.00    reference energy to select bands
   IMIX   =      4    mixing-type and parameters
     AMIX     =   0.40;   BMIX     =  1.00
     AMIX_MAG =   1.60;   BMIX_MAG =  1.00
     AMIN     =   0.10
     WC   =   100.;   INIMIX=   1;  MIXPRE=   1;  MAXMIX= -45

 Intra band minimization:
   WEIMIN = 0.0000     energy-eigenvalue tresh-hold
   EBREAK =  0.20E-05  absolut break condition
   DEPER  =   0.30     relativ break condition  

   TIME   =   0.40     timestep for ELM

  volume/ion in A,a.u.               =      11.37        76.71
  Fermi-wavevector in a.u.,A,eV,Ry     =   1.405911  2.656787 26.893085  1.976586
  Thomas-Fermi vector in A             =   2.528325
 
 Write flags
   LWAVE        =      F    write WAVECAR
   LDOWNSAMPLE  =      F    k-point downsampling of WAVECAR
   LCHARG       =      F    write CHGCAR
   LVTOT        =      F    write LOCPOT, total local potential
   LVHAR        =      F    write LOCPOT, Hartree potential only
   LELF         =      F    write electronic localiz. function (ELF)
   LORBIT       =     11    0 simple, 1 ext, 2 COOP (PROOUT), +10 PAW based schemes


 Dipole corrections
   LMONO  =      F    monopole corrections only (constant potential shift)
   LDIPOL =      F    correct potential (dipole corrections)
   IDIPOL =      0    1-x, 2-y, 3-z, 4-all directions 
   EPSILON=  1.0000000 bulk dielectric constant

 Exchange correlation treatment:
   GGA     =    --    GGA type
   LEXCH   =     8    internal setting for exchange type
   VOSKOWN=      0    Vosko Wilk Nusair interpolation
   LHFCALC =     F    Hartree Fock is set to
   LHFONE  =     F    Hartree Fock one center treatment
   AEXX    =    0.0000 exact exchange contribution

 Linear response parameters
   LEPSILON=     F    determine dielectric tensor
   LRPA    =     F    only Hartree local field effects (RPA)
   LNABLA  =     F    use nabla operator in PAW spheres
   LVEL    =     F    velocity operator in full k-point grid
   LINTERFAST=   F  fast interpolation
   KINTER  =     0    interpolate to denser k-point grid
   CSHIFT  =0.1000    complex shift for real part using Kramers Kronig
   OMEGAMAX=  -1.0    maximum frequency
   DEG_THRESHOLD= 0.2000000E-02 threshold for treating states as degnerate
   RTIME   =   -0.100 relaxation time in fs
  (WPLASMAI=    0.000 imaginary part of plasma frequency in eV, 0.658/RTIME)
   DFIELD  = 0.0000000 0.0000000 0.0000000 field for delta impulse in time
 
 Orbital magnetization related:
   ORBITALMAG=     F  switch on orbital magnetization
   LCHIMAG   =     F  perturbation theory with respect to B field
   DQ        =  0.001000  dq finite difference perturbation B field
   LLRAUG    =     F  two centre corrections for induced B field



--------------------------------------------------------------------------------------------------------


 Static calculation
 charge density and potential remain constant during run
 non-spin polarized calculation
 Variant of blocked Davidson
 Davidson routine will perform the subspace rotation
 perform sub-space diagonalisation
    after iterative eigenvector-optimisation
 no mixing
 using additional bands          224
 real space projection scheme for non local part
 use partial core corrections
 calculate Harris-corrections to forces 
   (improved forces if not selfconsistent)
 use gradient corrections 
 WARNING: stress and forces are not correct
  (second derivative of E(xc) not defined)
 use of overlap-Matrix (Vanderbilt PP)
 Gauss-broadening in eV      SIGMA  =   0.00


--------------------------------------------------------------------------------------------------------


  energy-cutoff  :      520.00
  volume of cell :      909.44
      direct lattice vectors                 reciprocal lattice vectors
     9.966795000  0.000000000 -3.523794000     0.100333156  0.057927373  0.000000000
    -4.983397000  8.631497000 -3.523794000     0.000000000  0.115854758  0.000000000
     0.000000000  0.000000000 10.571382000     0.033444385  0.057927377  0.094595011

  length of vectors
    10.571382442 10.571381663 10.571382000     0.115854749  0.115854758  0.115854754


 
 k-points in units of 2pi/SCALE and weight: Non SCF run along symmetry lines        
   0.00000000  0.00000000  0.00000000       0.018
   0.00608080 -0.00000000  0.00429977       0.018
   0.01216159 -0.00000000  0.00859955       0.018
   0.01824239 -0.00000000  0.01289932       0.018
   0.02432319 -0.00000000  0.01719909       0.018
   0.03040399 -0.00000000  0.02149887       0.018
   0.03648478 -0.00000000  0.02579864       0.018
   0.04256558 -0.00000000  0.03009841       0.018
   0.04864638 -0.00000000  0.03439819       0.018
   0.05472718 -0.00000000  0.03869796       0.018
   0.06080797 -0.00000000  0.04299773       0.018
   0.06688877 -0.00000000  0.04729751       0.018
   0.06688877 -0.00000000  0.04729751       0.018
   0.06061795  0.00362046  0.04729751       0.018
   0.05434713  0.00724092  0.04729751       0.018
   0.04807630  0.01086138  0.04729751       0.018
   0.04180548  0.01448184  0.04729751       0.018
   0.03553466  0.01810230  0.04729751       0.018
   0.02926384  0.02172277  0.04729751       0.018
   0.02299301  0.02534323  0.04729751       0.018
   0.01672219  0.02896369  0.04729751       0.018
   0.01672219  0.02896369  0.04729751       0.018
   0.01463192  0.02534323  0.04138532       0.018
   0.01254164  0.02172277  0.03547313       0.018
   0.01045137  0.01810231  0.02956094       0.018
   0.00836110  0.01448184  0.02364875       0.018
   0.00627082  0.01086138  0.01773656       0.018
   0.00418055  0.00724092  0.01182438       0.018
   0.00209027  0.00362046  0.00591219       0.018
   0.00000000  0.00000000  0.00000000       0.018
   0.00000000  0.00000000  0.00000000       0.018
   0.00371604  0.00643638  0.00262764       0.018
   0.00743209  0.01287275  0.00525528       0.018
   0.01114813  0.01930913  0.00788292       0.018
   0.01486417  0.02574550  0.01051056       0.018
   0.01858021  0.03218188  0.01313820       0.018
   0.02229626  0.03861825  0.01576584       0.018
   0.02601230  0.04505463  0.01839347       0.018
   0.02972834  0.05149100  0.02102111       0.018
   0.03344439  0.05792738  0.02364875       0.018
   0.03344439  0.05792738  0.02364875       0.018
   0.03716043  0.05149100  0.02627639       0.018
   0.04087647  0.04505463  0.02890403       0.018
   0.04459251  0.03861825  0.03153167       0.018
   0.04830856  0.03218187  0.03415931       0.018
   0.05202460  0.02574550  0.03678695       0.018
   0.05574064  0.01930912  0.03941459       0.018
   0.05945669  0.01287275  0.04204223       0.018
   0.06317273  0.00643637  0.04466987       0.018
   0.06688877 -0.00000000  0.04729751       0.018
   0.03344439  0.05792738  0.02364875       0.018
   0.03065735  0.05310010  0.02759021       0.018
   0.02787032  0.04827281  0.03153167       0.018
   0.02508329  0.04344553  0.03547313       0.018
   0.02229626  0.03861825  0.03941459       0.018
   0.01950922  0.03379097  0.04335605       0.018
   0.01672219  0.02896369  0.04729751       0.018
 
 k-points in reciprocal lattice and weights: Non SCF run along symmetry lines        
   0.00000000  0.00000000  0.00000000       0.018
   0.04545455 -0.04545455  0.04545455       0.018
   0.09090909 -0.09090909  0.09090909       0.018
   0.13636364 -0.13636364  0.13636364       0.018
   0.18181818 -0.18181818  0.18181818       0.018
   0.22727273 -0.22727273  0.22727273       0.018
   0.27272727 -0.27272727  0.27272727       0.018
   0.31818182 -0.31818182  0.31818182       0.018
   0.36363636 -0.36363636  0.36363636       0.018
   0.40909091 -0.40909091  0.40909091       0.018
   0.45454545 -0.45454545  0.45454545       0.018
   0.50000000 -0.50000000  0.50000000       0.018
   0.50000000 -0.50000000  0.50000000       0.018
   0.43750000 -0.43750000  0.50000000       0.018
   0.37500000 -0.37500000  0.50000000       0.018
   0.31250000 -0.31250000  0.50000000       0.018
   0.25000000 -0.25000000  0.50000000       0.018
   0.18750000 -0.18750000  0.50000000       0.018
   0.12500000 -0.12500000  0.50000000       0.018
   0.06250000 -0.06250000  0.50000000       0.018
  -0.00000000  0.00000000  0.50000000       0.018
  -0.00000000  0.00000000  0.50000000       0.018
  -0.00000000  0.00000000  0.43750000       0.018
  -0.00000000  0.00000000  0.37500000       0.018
   0.00000000 -0.00000000  0.31250000       0.018
  -0.00000000  0.00000000  0.25000000       0.018
  -0.00000000  0.00000000  0.18750000       0.018
   0.00000000 -0.00000000  0.12500000       0.018
   0.00000000 -0.00000000  0.06250000       0.018
   0.00000000  0.00000000  0.00000000       0.018
   0.00000000  0.00000000  0.00000000       0.018
   0.02777778  0.02777778  0.02777778       0.018
   0.05555556  0.05555556  0.05555556       0.018
   0.08333333  0.08333333  0.08333333       0.018
   0.11111111  0.11111111  0.11111111       0.018
   0.13888889  0.13888889  0.13888889       0.018
   0.16666667  0.16666667  0.16666667       0.018
   0.19444444  0.19444444  0.19444444       0.018
   0.22222222  0.22222222  0.22222222       0.018
   0.25000000  0.25000000  0.25000000       0.018
   0.25000000  0.25000000  0.25000000       0.018
   0.27777778  0.16666667  0.27777778       0.018
   0.30555556  0.08333333  0.30555556       0.018
   0.33333333  0.00000000  0.33333333       0.018
   0.36111111 -0.08333333  0.36111111       0.018
   0.38888889 -0.16666667  0.38888889       0.018
   0.41666667 -0.25000000  0.41666667       0.018
   0.44444444 -0.33333333  0.44444444       0.018
   0.47222222 -0.41666667  0.47222222       0.018
   0.50000000 -0.50000000  0.50000000       0.018
   0.25000000  0.25000000  0.25000000       0.018
   0.20833333  0.20833333  0.29166667       0.018
   0.16666667  0.16666667  0.33333333       0.018
   0.12500000  0.12500000  0.37500000       0.018
   0.08333333  0.08333333  0.41666667       0.018
   0.04166667  0.04166667  0.45833333       0.018
  -0.00000000  0.00000000  0.50000000       0.018
 
 position of ions in fractional coordinates (direct lattice) 
   0.25000000  0.87500000  0.62500000
   0.87500000  0.62500000  0.25000000
   0.62500000  0.87500000  0.75000000
   0.87500000  0.75000000  0.62500000
   0.62500000  0.25000000  0.87500000
   0.75000000  0.62500000  0.87500000
   0.75000000  0.12500000  0.37500000
   0.12500000  0.37500000  0.75000000
   0.37500000  0.12500000  0.25000000
   0.12500000  0.25000000  0.37500000
   0.37500000  0.75000000  0.12500000
   0.25000000  0.37500000  0.12500000
   0.50000000  0.50000000  0.50000000
   0.50000000  0.50000000  0.00000000
   0.50000000  0.00000000  0.50000000
   0.00000000  0.50000000  0.50000000
   0.50000000  0.00000000  0.00000000
   0.00000000  0.00000000  0.50000000
   0.00000000  0.50000000  0.00000000
   0.00000000  0.00000000  0.00000000
   0.25000000  0.12500000  0.87500000
   0.75000000  0.87500000  0.12500000
   0.37500000  0.25000000  0.62500000
   0.62500000  0.37500000  0.25000000
   0.12500000  0.75000000  0.87500000
   0.87500000  0.12500000  0.75000000
   0.75000000  0.37500000  0.62500000
   0.37500000  0.62500000  0.75000000
   0.12500000  0.87500000  0.25000000
   0.87500000  0.25000000  0.12500000
   0.62500000  0.75000000  0.37500000
   0.25000000  0.62500000  0.37500000
   0.70050300  0.67352700  0.07951100
   0.82647300  0.52697600  0.40598300
   0.42048900  0.09401700  0.62099200
   0.79949700  0.87900800  0.97302400
   0.79949700  0.42048900  0.82647300
   0.87900800  0.97302400  0.79949700
   0.09401700  0.97302400  0.67352700
   0.97302400  0.79949700  0.87900800
   0.40598300  0.07951100  0.87900800
   0.52697600  0.62099200  0.70050300
   0.62099200  0.70050300  0.52697600
   0.82647300  0.79949700  0.42048900
   0.97302400  0.67352700  0.09401700
   0.87900800  0.40598300  0.07951100
   0.42048900  0.82647300  0.79949700
   0.67352700  0.09401700  0.97302400
   0.07951100  0.87900800  0.40598300
   0.40598300  0.82647300  0.52697600
   0.09401700  0.62099200  0.42048900
   0.59401700  0.92048900  0.12099200
   0.62099200  0.42048900  0.09401700
   0.07951100  0.70050300  0.67352700
   0.52697600  0.40598300  0.82647300
   0.70050300  0.52697600  0.62099200
   0.29949700  0.32647300  0.92048900
   0.17352700  0.47302400  0.59401700
   0.57951100  0.90598300  0.37900800
   0.20050300  0.12099200  0.02697600
   0.20050300  0.57951100  0.17352700
   0.12099200  0.02697600  0.20050300
   0.90598300  0.02697600  0.32647300
   0.02697600  0.20050300  0.12099200
   0.29949700  0.47302400  0.37900800
   0.47302400  0.59401700  0.17352700
   0.92048900  0.29949700  0.32647300
   0.32647300  0.92048900  0.29949700
   0.37900800  0.57951100  0.90598300
   0.90598300  0.37900800  0.57951100
   0.59401700  0.17352700  0.47302400
   0.92048900  0.12099200  0.59401700
   0.32647300  0.90598300  0.02697600
   0.57951100  0.17352700  0.20050300
   0.12099200  0.59401700  0.92048900
   0.02697600  0.32647300  0.90598300
   0.17352700  0.20050300  0.57951100
   0.37900800  0.29949700  0.47302400
   0.47302400  0.37900800  0.29949700
   0.67352700  0.07951100  0.70050300
 
 position of ions in cartesian coordinates  (Angst):
  -1.86877363  7.55255988  2.64284550
   5.60632250  5.39468562 -2.64284550
   1.86877450  7.55255988  2.64284550
   4.98339787  6.47362275  0.88094850
   4.98339762  2.15787425  6.16663950
   4.36047312  5.39468562  4.40474250
   6.85217162  1.07893712  0.88094850
  -0.62292450  3.23681137  6.16663950
   3.11462350  1.07893712  0.88094850
   0.00000012  2.15787425  2.64284550
   0.00000037  6.47362275 -2.64284550
   0.62292487  3.23681137 -0.88094850
   2.49169900  4.31574850  1.76189700
   2.49169900  4.31574850 -3.52379400
   4.98339750  0.00000000  3.52379400
  -2.49169850  4.31574850  3.52379400
   4.98339750  0.00000000 -1.76189700
   0.00000000  0.00000000  5.28569100
  -2.49169850  4.31574850 -1.76189700
   0.00000000  0.00000000  0.00000000
   1.86877412  1.07893712  7.92853650
   3.11462387  7.55255988 -4.40474250
   2.49169887  2.15787425  4.40474250
   4.36047300  3.23681137 -0.88094850
  -2.49169838  6.47362275  6.16663950
   8.09802100  1.07893712  4.40474250
   5.60632237  3.23681137  2.64284550
   0.62292500  5.39468562  4.40474250
  -3.11462300  7.55255988 -0.88094850
   7.47509637  2.15787425 -2.64284550
   2.49169912  6.47362275 -0.88094850
  -0.62292438  5.39468562  0.88094850
   3.62531737  5.81354628 -4.00125752
   5.61115635  4.54859176 -0.47747409
   3.72240363  0.81150745  4.75173050
   3.58797687  7.58715491  4.37150255
   5.87295908  3.62944954  4.43798245
   3.91192766  8.39865374  1.92560895
  -3.91191672  8.39865374  3.36007853
   5.71371979  6.90085596  3.04633048
   3.65011446  0.68629896  7.58154850
   2.15761209  5.36009059  3.36008205
   2.69841541  6.04638954  0.91418845
   4.25307601  6.90085596 -1.28443348
   6.34147831  5.81354628 -4.80821691
   6.73771808  3.50424105 -3.68750242
   0.07228459  7.13369922  4.05775098
   6.24438150  0.81150745  7.58154146
  -3.58797599  7.58715491  0.91417788
  -0.07229373  7.13369922  1.22794354
  -2.15760150  5.36009059  1.92560542
   1.33328354  7.94519804 -4.05775450
   4.09383634  3.62944954 -2.67607488
  -2.69841471  6.04638954  4.37150255
   3.22908730  3.50424105  5.44940647
   4.35563918  4.54859176  2.23936052
   1.35808063  2.81795072  7.52505152
  -0.62775835  4.08290524  4.00126809
   1.26099437  7.81998955 -1.22793650
   1.39542113  1.04434209 -0.84770855
  -0.88956108  5.00204746 -0.91418845
   1.07147034  0.23284326  1.59818505
   8.89531472  0.23284326  0.16371547
  -0.73032179  1.73064104  0.47746352
   0.62775882  4.08290524  1.28443348
   1.75431070  5.12725595 -1.92561247
   7.68181271  2.58510746 -0.84770855
  -1.33327266  7.94519804 -1.22794002
   0.88956166  5.00204746  6.19986888
   7.14099950  3.27140641  1.59818858
   5.05569173  1.49779778  2.29585046
   8.57137399  1.04434209  2.60961612
  -1.26098350  7.81998955 -4.05774746
   4.91111341  1.49779778 -0.53395698
  -1.75432008  5.12725595  7.21129642
  -1.35808031  2.81795072  8.33201091
   0.73032199  1.73064104  4.80822748
   2.28498259  2.58510746  2.60960555
   2.82578591  3.27140641  0.16371195
   6.31667066  0.68629896  4.75173402
 


--------------------------------------------------------------------------------------------------------


 k-point  1 :   0.0000 0.0000 0.0000  plane waves:   24499
 k-point  2 :   0.0455-0.0455 0.0455  plane waves:   24507
 k-point  3 :   0.0909-0.0909 0.0909  plane waves:   24535
 k-point  4 :   0.1364-0.1364 0.1364  plane waves:   24503
 k-point  5 :   0.1818-0.1818 0.1818  plane waves:   24479
 k-point  6 :   0.2273-0.2273 0.2273  plane waves:   24527
 k-point  7 :   0.2727-0.2727 0.2727  plane waves:   24499
 k-point  8 :   0.3182-0.3182 0.3182  plane waves:   24479
 k-point  9 :   0.3636-0.3636 0.3636  plane waves:   24510
 k-point 10 :   0.4091-0.4091 0.4091  plane waves:   24446
 k-point 11 :   0.4545-0.4545 0.4545  plane waves:   24450
 k-point 12 :   0.5000-0.5000 0.5000  plane waves:   24530
 k-point 13 :   0.5000-0.5000 0.5000  plane waves:   24530
 k-point 14 :   0.4375-0.4375 0.5000  plane waves:   24444
 k-point 15 :   0.3750-0.3750 0.5000  plane waves:   24452
 k-point 16 :   0.3125-0.3125 0.5000  plane waves:   24460
 k-point 17 :   0.2500-0.2500 0.5000  plane waves:   24502
 k-point 18 :   0.1875-0.1875 0.5000  plane waves:   24498
 k-point 19 :   0.1250-0.1250 0.5000  plane waves:   24496
 k-point 20 :   0.0625-0.0625 0.5000  plane waves:   24500
 k-point 21 :  -0.0000 0.0000 0.5000  plane waves:   24504
 k-point 22 :  -0.0000 0.0000 0.5000  plane waves:   24504
 k-point 23 :  -0.0000 0.0000 0.4375  plane waves:   24484
 k-point 24 :  -0.0000 0.0000 0.3750  plane waves:   24478
 k-point 25 :   0.0000-0.0000 0.3125  plane waves:   24484
 k-point 26 :  -0.0000 0.0000 0.2500  plane waves:   24512
 k-point 27 :  -0.0000 0.0000 0.1875  plane waves:   24510
 k-point 28 :   0.0000-0.0000 0.1250  plane waves:   24516
 k-point 29 :   0.0000-0.0000 0.0625  plane waves:   24510
 k-point 30 :   0.0000 0.0000 0.0000  plane waves:   24499
 k-point 31 :   0.0000 0.0000 0.0000  plane waves:   24499
 k-point 32 :   0.0278 0.0278 0.0278  plane waves:   24526
 k-point 33 :   0.0556 0.0556 0.0556  plane waves:   24538
 k-point 34 :   0.0833 0.0833 0.0833  plane waves:   24493
 k-point 35 :   0.1111 0.1111 0.1111  plane waves:   24487
 k-point 36 :   0.1389 0.1389 0.1389  plane waves:   24481
 k-point 37 :   0.1667 0.1667 0.1667  plane waves:   24487
 k-point 38 :   0.1944 0.1944 0.1944  plane waves:   24484
 k-point 39 :   0.2222 0.2222 0.2222  plane waves:   24478
 k-point 40 :   0.2500 0.2500 0.2500  plane waves:   24520
 k-point 41 :   0.2500 0.2500 0.2500  plane waves:   24520
 k-point 42 :   0.2778 0.1667 0.2778  plane waves:   24478
 k-point 43 :   0.3056 0.0833 0.3056  plane waves:   24478
 k-point 44 :   0.3333 0.0000 0.3333  plane waves:   24451
 k-point 45 :   0.3611-0.0833 0.3611  plane waves:   24463
 k-point 46 :   0.3889-0.1667 0.3889  plane waves:   24481
 k-point 47 :   0.4167-0.2500 0.4167  plane waves:   24454
 k-point 48 :   0.4444-0.3333 0.4444  plane waves:   24448
 k-point 49 :   0.4722-0.4167 0.4722  plane waves:   24461
 k-point 50 :   0.5000-0.5000 0.5000  plane waves:   24530
 k-point 51 :   0.2500 0.2500 0.2500  plane waves:   24520
 k-point 52 :   0.2083 0.2083 0.2917  plane waves:   24470
 k-point 53 :   0.1667 0.1667 0.3333  plane waves:   24476
 k-point 54 :   0.1250 0.1250 0.3750  plane waves:   24480
 k-point 55 :   0.0833 0.0833 0.4167  plane waves:   24468
 k-point 56 :   0.0417 0.0417 0.4583  plane waves:   24486
 k-point 57 :  -0.0000 0.0000 0.5000  plane waves:   24504

 maximum and minimum number of plane-waves per node :     24538    24444

 maximum number of plane-waves:     24538
 maximum index in each direction: 
   IXMAX=   19   IYMAX=   20   IZMAX=   19
   IXMIN=  -20   IYMIN=  -19   IZMIN=  -20

 NGX is ok and might be reduce to  80
 NGY is ok and might be reduce to  80
 NGZ is ok and might be reduce to  80

 serial   3D FFT for wavefunctions
 parallel 3D FFT for charge:
    minimum data exchange during FFTs selected (reduces bandwidth)


 total amount of memory used by VASP MPI-rank0   415404. kBytes
=======================================================================

   base      :      30000. kBytes
   nonlr-proj:     167509. kBytes
   fftplans  :       4643. kBytes
   grid      :      26165. kBytes
   one-center:       1244. kBytes
   wavefun   :     185843. kBytes
 
     INWAV:  cpu time    0.0040: real time    0.0001
 initial charge density was supplied:
 number of electron     576.0000182 magnetization 
 keeping initial charge density in first step


--------------------------------------------------------------------------------------------------------


 Maximum index for non-local projection operator         1820
 Maximum index for augmentation-charges         1388 (set IRDMAX)


--------------------------------------------------------------------------------------------------------


 First call to EWALD:  gamma=   0.183
 Maximum number of real-space cells 3x 3x 3
 Maximum number of reciprocal cells 3x 3x 3

    FEWALD:  cpu time    0.1320: real time    0.0187


--------------------------------------- Iteration      1(   1)  ---------------------------------------


    POTLOK:  cpu time    2.1760: real time    0.3405
    SETDIJ:  cpu time    2.9760: real time    0.8031
     EDDAV:  cpu time 1427.4360: real time  187.7260
       DOS:  cpu time    0.1960: real time    0.0285
    --------------------------------------------
      LOOP:  cpu time 1432.7880: real time  188.8984

 eigenvalue-minimisations  : 90816
 total energy-change (2. order) : 0.6232183E+04  (-0.2300717E+05)
 number of electron     576.0000182 magnetization 
 augmentation part      576.0000182 magnetization 

 Free energy of the ion-electron system (eV)
  ---------------------------------------------------
  alpha Z        PSCENC =      3178.74917709
  Ewald energy   TEWEN  =    -38983.88952165
  -Hartree energ DENC   =    -14295.93087557
  -exchange      EXHF   =         0.00000000
  -V(xc)+E(xc)   XCENC  =      1846.94402709
  PAW double counting   =     39324.07796013   -42957.33388892
  entropy T*S    EENTRO =        -0.00000785
  eigenvalues    EBANDS =      3087.19197039
  atomic energy  EATOM  =     55032.37442187
  Solvation  Ediel_sol  =         0.00000000
  ---------------------------------------------------
  free energy    TOTEN  =      6232.18326258 eV

  energy without entropy =     6232.18327043  energy(sigma->0) =     6232.18326651


--------------------------------------------------------------------------------------------------------




--------------------------------------- Iteration      1(   2)  ---------------------------------------


     EDDAV:  cpu time 1439.1080: real time  189.1721
       DOS:  cpu time    0.0840: real time    0.0131
    --------------------------------------------
      LOOP:  cpu time 1439.1920: real time  189.1852

 eigenvalue-minimisations  : 91200
 total energy-change (2. order) :-0.5815977E+04  (-0.5174574E+04)
 number of electron     576.0000182 magnetization 
 augmentation part      576.0000182 magnetization 

 Free energy of the ion-electron system (eV)
  ---------------------------------------------------
  alpha Z        PSCENC =      3178.74917709
  Ewald energy   TEWEN  =    -38983.88952165
  -Hartree energ DENC   =    -14295.93087557
  -exchange      EXHF   =         0.00000000
  -V(xc)+E(xc)   XCENC  =      1846.94402709
  PAW double counting   =     39324.07796013   -42957.33388892
  entropy T*S    EENTRO =         0.00000000
  eigenvalues    EBANDS =     -2728.78515434
  atomic energy  EATOM  =     55032.37442187
  Solvation  Ediel_sol  =         0.00000000
  ---------------------------------------------------
  free energy    TOTEN  =       416.20614571 eV

  energy without entropy =      416.20614571  energy(sigma->0) =      416.20614571


--------------------------------------------------------------------------------------------------------




--------------------------------------- Iteration      1(   3)  ---------------------------------------


     EDDAV:  cpu time 1539.4760: real time  202.1805
       DOS:  cpu time    0.1000: real time    0.0153
    --------------------------------------------
      LOOP:  cpu time 1539.5720: real time  202.1958

 eigenvalue-minimisations  : 96384
 total energy-change (2. order) :-0.9580811E+03  (-0.9267038E+03)
 number of electron     576.0000182 magnetization 
 augmentation part      576.0000182 magnetization 

 Free energy of the ion-electron system (eV)
  ---------------------------------------------------
  alpha Z        PSCENC =      3178.74917709
  Ewald energy   TEWEN  =    -38983.88952165
  -Hartree energ DENC   =    -14295.93087557
  -exchange      EXHF   =         0.00000000
  -V(xc)+E(xc)   XCENC  =      1846.94402709
  PAW double counting   =     39324.07796013   -42957.33388892
  entropy T*S    EENTRO =         0.00000000
  eigenvalues    EBANDS =     -3686.86621310
  atomic energy  EATOM  =     55032.37442187
  Solvation  Ediel_sol  =         0.00000000
  ---------------------------------------------------
  free energy    TOTEN  =      -541.87491305 eV

  energy without entropy =     -541.87491305  energy(sigma->0) =     -541.87491305


--------------------------------------------------------------------------------------------------------




--------------------------------------- Iteration      1(   4)  ---------------------------------------


     EDDAV:  cpu time 1539.8200: real time  202.1282
       DOS:  cpu time    0.0880: real time    0.0139
    --------------------------------------------
      LOOP:  cpu time 1539.9120: real time  202.1422

 eigenvalue-minimisations  : 97024
 total energy-change (2. order) :-0.4572470E+02  (-0.4555113E+02)
 number of electron     576.0000182 magnetization 
 augmentation part      576.0000182 magnetization 

 Free energy of the ion-electron system (eV)
  ---------------------------------------------------
  alpha Z        PSCENC =      3178.74917709
  Ewald energy   TEWEN  =    -38983.88952165
  -Hartree energ DENC   =    -14295.93087557
  -exchange      EXHF   =         0.00000000
  -V(xc)+E(xc)   XCENC  =      1846.94402709
  PAW double counting   =     39324.07796013   -42957.33388892
  entropy T*S    EENTRO =         0.00000000
  eigenvalues    EBANDS =     -3732.59091361
  atomic energy  EATOM  =     55032.37442187
  Solvation  Ediel_sol  =         0.00000000
  ---------------------------------------------------
  free energy    TOTEN  =      -587.59961356 eV

  energy without entropy =     -587.59961356  energy(sigma->0) =     -587.59961356


--------------------------------------------------------------------------------------------------------




--------------------------------------- Iteration      1(   5)  ---------------------------------------


     EDDAV:  cpu time 1105.0840: real time  145.9556
       DOS:  cpu time    0.1560: real time    0.0256
    --------------------------------------------
      LOOP:  cpu time 1105.2400: real time  145.9812

 eigenvalue-minimisations  : 70784
 total energy-change (2. order) :-0.5853717E+00  (-0.5850195E+00)
 number of electron     576.0000182 magnetization 
 augmentation part      576.0000182 magnetization 

 Free energy of the ion-electron system (eV)
  ---------------------------------------------------
  alpha Z        PSCENC =      3178.74917709
  Ewald energy   TEWEN  =    -38983.88952165
  -Hartree energ DENC   =    -14295.93087557
  -exchange      EXHF   =         0.00000000
  -V(xc)+E(xc)   XCENC  =      1846.94402709
  PAW double counting   =     39324.07796013   -42957.33388892
  entropy T*S    EENTRO =         0.00000000
  eigenvalues    EBANDS =     -3733.17628535
  atomic energy  EATOM  =     55032.37442187
  Solvation  Ediel_sol  =         0.00000000
  ---------------------------------------------------
  free energy    TOTEN  =      -588.18498530 eV

  energy without entropy =     -588.18498530  energy(sigma->0) =     -588.18498530


--------------------------------------------------------------------------------------------------------




--------------------------------------- Iteration      1(   6)  ---------------------------------------


     EDDAV:  cpu time 1761.8000: real time  230.6912
       DOS:  cpu time    0.1040: real time    0.0162
    --------------------------------------------
      LOOP:  cpu time 1761.9040: real time  230.7074

 eigenvalue-minimisations  :107072
 total energy-change (2. order) :-0.8547128E-01  (-0.8546679E-01)
 number of electron     576.0000182 magnetization 
 augmentation part      576.0000182 magnetization 

 Free energy of the ion-electron system (eV)
  ---------------------------------------------------
  alpha Z        PSCENC =      3178.74917709
  Ewald energy   TEWEN  =    -38983.88952165
  -Hartree energ DENC   =    -14295.93087557
  -exchange      EXHF   =         0.00000000
  -V(xc)+E(xc)   XCENC  =      1846.94402709
  PAW double counting   =     39324.07796013   -42957.33388892
  entropy T*S    EENTRO =         0.00000000
  eigenvalues    EBANDS =     -3733.26175663
  atomic energy  EATOM  =     55032.37442187
  Solvation  Ediel_sol  =         0.00000000
  ---------------------------------------------------
  free energy    TOTEN  =      -588.27045658 eV

  energy without entropy =     -588.27045658  energy(sigma->0) =     -588.27045658


--------------------------------------------------------------------------------------------------------




--------------------------------------- Iteration      1(   7)  ---------------------------------------


     EDDAV:  cpu time  933.9440: real time  123.4795
       DOS:  cpu time    0.1280: real time    0.0208
    --------------------------------------------
      LOOP:  cpu time  934.0720: real time  123.5002

 eigenvalue-minimisations  : 54848
 total energy-change (2. order) :-0.3825876E-03  (-0.3825719E-03)
 number of electron     576.0000182 magnetization 
 augmentation part      576.0000182 magnetization 

 Free energy of the ion-electron system (eV)
  ---------------------------------------------------
  alpha Z        PSCENC =      3178.74917709
  Ewald energy   TEWEN  =    -38983.88952165
  -Hartree energ DENC   =    -14295.93087557
  -exchange      EXHF   =         0.00000000
  -V(xc)+E(xc)   XCENC  =      1846.94402709
  PAW double counting   =     39324.07796013   -42957.33388892
  entropy T*S    EENTRO =         0.00000000
  eigenvalues    EBANDS =     -3733.26213922
  atomic energy  EATOM  =     55032.37442187
  Solvation  Ediel_sol  =         0.00000000
  ---------------------------------------------------
  free energy    TOTEN  =      -588.27083917 eV

  energy without entropy =     -588.27083917  energy(sigma->0) =     -588.27083917


--------------------------------------------------------------------------------------------------------




 average (electrostatic) potential at core
  the test charge radii are     1.3020  1.0406  1.0314  0.7215
  (the norm of the test charge is              1.0000)
       1 -32.2619       2 -32.2619       3 -32.2617       4 -32.2617       5 -32.2619
       6 -32.2617       7 -32.2619       8 -32.2619       9 -32.2617      10 -32.2617
      11 -32.2619      12 -32.2617      13 -74.9497      14 -74.9495      15 -74.9495
      16 -74.9495      17 -74.9495      18 -74.9495      19 -74.9495      20 -74.9497
      21 -28.3892      22 -28.3892      23 -28.3892      24 -28.3892      25 -28.3892
      26 -28.3892      27 -28.3892      28 -28.3892      29 -28.3892      30 -28.3892
      31 -28.3892      32 -28.3892      33 -70.5090      34 -70.5090      35 -70.5091
      36 -70.5090      37 -70.5090      38 -70.5090      39 -70.5090      40 -70.5090
      41 -70.5091      42 -70.5090      43 -70.5090      44 -70.5090      45 -70.5090
      46 -70.5091      47 -70.5090      48 -70.5090      49 -70.5091      50 -70.5090
      51 -70.5091      52 -70.5091      53 -70.5091      54 -70.5090      55 -70.5090
      56 -70.5090      57 -70.5090      58 -70.5090      59 -70.5091      60 -70.5090
      61 -70.5090      62 -70.5090      63 -70.5090      64 -70.5090      65 -70.5090
      66 -70.5090      67 -70.5090      68 -70.5090      69 -70.5091      70 -70.5091
      71 -70.5090      72 -70.5091      73 -70.5090      74 -70.5090      75 -70.5091
      76 -70.5090      77 -70.5090      78 -70.5090      79 -70.5090      80 -70.5090
 
 
 
 E-fermi :   2.7064     XC(G=0): -11.2351     alpha+bet :-12.3645


 k-point     1 :       0.0000    0.0000    0.0000
  band No.  band energies     occupation 
      1     -19.4769      2.00000
      2     -19.4769      2.00000
      3     -19.4769      2.00000
      4     -19.4477      2.00000
      5     -19.4477      2.00000
      6     -19.4477      2.00000
      7     -19.4188      2.00000
      8     -19.4188      2.00000
      9     -19.4187      2.00000
     10     -19.4160      2.00000
     11     -19.4160      2.00000
     12     -19.4085      2.00000
     13     -19.4085      2.00000
     14     -19.4084      2.00000
     15     -19.3888      2.00000
     16     -19.3888      2.00000
     17     -19.3039      2.00000
     18     -19.3024      2.00000
     19     -19.1577      2.00000
     20     -19.1576      2.00000
     21     -19.1576      2.00000
     22     -19.1529      2.00000
     23     -19.1529      2.00000
     24     -19.1527      2.00000
     25     -19.1502      2.00000
     26     -19.1502      2.00000
     27     -19.1501      2.00000
     28     -19.1483      2.00000
     29     -19.1481      2.00000
     30     -19.1481      2.00000
     31     -19.0664      2.00000
     32     -19.0662      2.00000
     33     -19.0662      2.00000
     34     -19.0659      2.00000
     35     -19.0658      2.00000
     36     -19.0658      2.00000
     37     -15.1934      2.00000
     38     -14.3785      2.00000
     39     -14.3785      2.00000
     40     -14.3785      2.00000
     41     -14.3741      2.00000
     42     -14.3715      2.00000
     43     -14.3715      2.00000
     44     -14.3714      2.00000
     45     -14.2834      2.00000
     46     -14.2833      2.00000
     47     -14.2833      2.00000
     48     -14.2267      2.00000
     49     -13.9875      2.00000
     50     -13.9875      2.00000
     51     -13.9624      2.00000
     52     -13.9603      2.00000
     53     -13.9603      2.00000
     54     -13.8826      2.00000
     55     -13.8826      2.00000
     56     -13.8826      2.00000
     57     -13.8560      2.00000
     58     -13.8560      2.00000
     59     -13.8369      2.00000
     60     -13.8369      2.00000
     61     -13.8369      2.00000
     62     -13.6672      2.00000
     63     -13.6671      2.00000
     64     -13.6671      2.00000
     65     -13.6563      2.00000
     66     -13.6562      2.00000
     67     -13.6562      2.00000
     68     -13.6552      2.00000
     69     -13.6552      2.00000
     70     -13.6552      2.00000
     71     -13.5699      2.00000
     72     -13.5699      2.00000
     73     -13.5699      2.00000
     74     -13.5474      2.00000
     75     -13.5474      2.00000
     76     -13.5474      2.00000
     77     -13.4971      2.00000
     78     -13.4971      2.00000
     79     -13.4971      2.00000
     80     -13.4601      2.00000
     81     -13.4601      2.00000
     82     -13.4601      2.00000
     83     -13.4224      2.00000
     84     -13.4224      2.00000
     85      -9.6602      2.00000
     86      -9.6487      2.00000
     87      -9.6487      2.00000
     88      -9.6428      2.00000
     89      -9.6418      2.00000
     90      -9.6418      2.00000
     91      -9.6372      2.00000
     92      -9.6372      2.00000
     93      -9.6372      2.00000
     94      -9.6357      2.00000
     95      -9.6357      2.00000
     96      -9.6357      2.00000
     97      -9.6335      2.00000
     98      -9.6335      2.00000
     99      -9.6335      2.00000
    100      -9.6320      2.00000
    101      -9.6301      2.00000
    102      -9.6301      2.00000
    103      -9.6301      2.00000
    104      -9.6197      2.00000
    105      -9.6197      2.00000
    106      -9.6159      2.00000
    107      -9.6159      2.00000
    108      -9.6113      2.00000
    109      -9.5940      2.00000
    110      -9.5866      2.00000
    111      -9.5866      2.00000
    112      -9.5866      2.00000
    113      -9.5421      2.00000
    114      -9.4840      2.00000
    115      -9.4840      2.00000
    116      -9.4840      2.00000
    117      -9.4696      2.00000
    118      -9.4696      2.00000
    119      -9.4681      2.00000
    120      -9.4681      2.00000
    121      -9.4681      2.00000
    122      -9.4641      2.00000
    123      -9.4641      2.00000
    124      -9.4641      2.00000
    125      -9.4559      2.00000
    126      -9.4559      2.00000
    127      -9.4303      2.00000
    128      -9.4303      2.00000
    129      -9.4303      2.00000
    130      -9.4259      2.00000
    131      -9.4259      2.00000
    132      -9.4258      2.00000
    133      -9.4174      2.00000
    134      -9.4174      2.00000
    135      -9.4174      2.00000
    136      -9.3722      2.00000
    137      -9.3722      2.00000
    138      -9.3722      2.00000
    139      -9.3613      2.00000
    140      -9.3613      2.00000
    141      -9.3613      2.00000
    142      -9.3429      2.00000
    143      -9.3429      2.00000
    144      -9.3429      2.00000
    145      -4.1643      2.00000
    146      -3.3268      2.00000
    147      -2.9743      2.00000
    148      -2.9743      2.00000
    149      -2.9743      2.00000
    150      -2.8500      2.00000
    151      -2.8500      2.00000
    152      -2.8500      2.00000
    153      -2.5886      2.00000
    154      -2.5886      2.00000
    155      -2.5886      2.00000
    156      -2.2341      2.00000
    157      -2.2281      2.00000
    158      -2.2281      2.00000
    159      -2.1851      2.00000
    160      -2.1851      2.00000
    161      -1.9382      2.00000
    162      -1.3814      2.00000
    163      -1.1751      2.00000
    164      -1.1751      2.00000
    165      -1.1751      2.00000
    166      -1.1507      2.00000
    167      -1.1507      2.00000
    168      -1.1507      2.00000
    169      -0.9587      2.00000
    170      -0.9587      2.00000
    171      -0.9228      2.00000
    172      -0.9228      2.00000
    173      -0.9228      2.00000
    174      -0.8959      2.00000
    175      -0.8959      2.00000
    176      -0.8959      2.00000
    177      -0.7945      2.00000
    178      -0.7945      2.00000
    179      -0.7945      2.00000
    180      -0.7679      2.00000
    181      -0.7679      2.00000
    182      -0.4131      2.00000
    183      -0.4130      2.00000
    184      -0.4130      2.00000
    185      -0.2505      2.00000
    186      -0.2505      2.00000
    187      -0.2363      2.00000
    188      -0.2362      2.00000
    189      -0.2362      2.00000
    190      -0.1321      2.00000
    191      -0.1321      2.00000
    192      -0.1321      2.00000
    193      -0.0930      2.00000
    194      -0.0930      2.00000
    195      -0.0930      2.00000
    196      -0.0298      2.00000
    197      -0.0298      2.00000
    198      -0.0298      2.00000
    199       0.0977      2.00000
    200       0.0977      2.00000
    201       0.0977      2.00000
    202       0.1601      2.00000
    203       0.3590      2.00000
    204       0.3902      2.00000
    205       0.3902      2.00000
    206       0.3902      2.00000
    207       0.4734      2.00000
    208       0.4734      2.00000
    209       0.5292      2.00000
    210       0.5292      2.00000
    211       0.6151      2.00000
    212       0.6151      2.00000
    213       0.6151      2.00000
    214       0.6702      2.00000
    215       0.6702      2.00000
    216       0.6702      2.00000
    217       0.8205      2.00000
    218       0.8205      2.00000
    219       0.8205      2.00000
    220       0.8349      2.00000
    221       0.8473      2.00000
    222       0.8473      2.00000
    223       0.8473      2.00000
    224       0.9623      2.00000
    225       0.9623      2.00000
    226       0.9623      2.00000
    227       1.0455      2.00000
    228       1.0455      2.00000
    229       1.0455      2.00000
    230       1.0734      2.00000
    231       1.0792      2.00000
    232       1.0792      2.00000
    233       1.1739      2.00000
    234       1.1739      2.00000
    235       1.1739      2.00000
    236       1.4745      2.00000
    237       1.4745      2.00000
    238       1.4745      2.00000
    239       1.4941      2.00000
    240       1.4941      2.00000
    241       1.5991      2.00000
    242       1.5991      2.00000
    243       1.5991      2.00000
    244       1.6473      2.00000
    245       1.6473      2.00000
    246       1.6473      2.00000
    247       1.7197      2.00000
    248       1.7197      2.00000
    249       1.7507      2.00000
    250       1.7507      2.00000
    251       1.7507      2.00000
    252       1.8375      2.00000
    253       1.8375      2.00000
    254       1.8376      2.00000
    255       1.9282      2.00000
    256       1.9282      2.00000
    257       1.9282      2.00000
    258       1.9301      2.00000
    259       1.9301      2.00000
    260       1.9301      2.00000
    261       1.9589      2.00000
    262       1.9979      2.00000
    263       1.9979      2.00000
    264       2.1010      2.00000
    265       2.1010      2.00000
    266       2.1010      2.00000
    267       2.1169      2.00000
    268       2.1169      2.00000
    269       2.1169      2.00000
    270       2.1416      2.00000
    271       2.1416      2.00000
    272       2.1617      2.00000
    273       2.1617      2.00000
    274       2.1617      2.00000
    275       2.3211      2.00000
    276       2.3211      2.00000
    277       2.3211      2.00000
    278       2.3238      2.00000
    279       2.3583      2.00000
    280       2.3583      2.00000
    281       2.3583      2.00000
    282       2.4134      2.00000
    283       2.4134      2.00000
    284       2.4135      2.00000
    285       2.4220      2.00000
    286       2.6505      2.00000
    287       2.6506      2.00000
    288       2.6506      2.00000
    289       6.4521      0.00000
    290       7.6167      0.00000
    291       7.9780      0.00000
    292       8.4640      0.00000
    293       8.4640      0.00000
    294       8.4640      0.00000
    295       8.5753      0.00000
    296       8.5753      0.00000
    297       8.5754      0.00000
    298       8.7369      0.00000
    299       8.7369      0.00000
    300       8.8040      0.00000
    301       8.8040      0.00000
    302       8.8040      0.00000
    303       9.0251      0.00000
    304       9.0252      0.00000
    305       9.0252      0.00000
    306       9.0571      0.00000
    307       9.2743      0.00000
    308       9.2743      0.00000
    309       9.2743      0.00000
    310       9.3487      0.00000
    311       9.3487      0.00000
    312       9.3661      0.00000
    313       9.3662      0.00000
    314       9.3662      0.00000
    315       9.4876      0.00000
    316       9.4877      0.00000
    317       9.4877      0.00000
    318       9.7969      0.00000
    319       9.7969      0.00000
    320       9.7970      0.00000
    321      10.0150      0.00000
    322      10.0150      0.00000
    323      10.1036      0.00000
    324      10.1036      0.00000
    325      10.2725      0.00000
    326      10.2725      0.00000
    327      10.2725      0.00000
    328      10.4678      0.00000
    329      10.4678      0.00000
    330      10.4678      0.00000
    331      10.7563      0.00000
    332      10.7563      0.00000
    333      10.8699      0.00000
    334      10.9023      0.00000
    335      10.9023      0.00000
    336      10.9023      0.00000
    337      10.9718      0.00000
    338      10.9718      0.00000
    339      11.3346      0.00000
    340      11.3346      0.00000
    341      11.3346      0.00000
    342      11.3905      0.00000
    343      11.3905      0.00000
    344      11.3906      0.00000
    345      11.4595      0.00000
    346      11.4595      0.00000
    347      11.4595      0.00000
    348      11.5295      0.00000
    349      11.5938      0.00000
    350      11.5938      0.00000
    351      11.5938      0.00000
    352      11.7507      0.00000
    353      11.7507      0.00000
    354      11.7507      0.00000
    355      11.9227      0.00000
    356      11.9227      0.00000
    357      11.9227      0.00000
    358      12.1018      0.00000
    359      12.1761      0.00000
    360      12.1761      0.00000
    361      12.2587      0.00000
    362      12.2587      0.00000
    363      12.2855      0.00000
    364      12.3662      0.00000
    365      12.4025      0.00000
    366      12.4025      0.00000
    367      12.4026      0.00000
    368      12.7176      0.00000
    369      12.7176      0.00000
    370      12.7176      0.00000
    371      12.7213      0.00000
    372      12.7213      0.00000
    373      12.7214      0.00000
    374      12.7342      0.00000
    375      12.7342      0.00000
    376      12.7342      0.00000
    377      12.8016      0.00000
    378      12.9994      0.00000
    379      13.0851      0.00000
    380      13.0851      0.00000
    381      13.0851      0.00000
    382      13.2398      0.00000
    383      13.2398      0.00000
    384      13.4874      0.00000
    385      13.4874      0.00000
    386      13.4875      0.00000
    387      13.5326      0.00000
    388      13.5326      0.00000
    389      13.5326      0.00000
    390      13.6370      0.00000
    391      13.6370      0.00000
    392      13.6370      0.00000
    393      14.2738      0.00000
    394      14.2738      0.00000
    395      14.2738      0.00000
    396      14.3388      0.00000
    397      14.4795      0.00000
    398      14.4795      0.00000
    399      14.4795      0.00000
    400      14.6260      0.00000
    401      14.6260      0.00000
    402      14.6261      0.00000
    403      14.7437      0.00000
    404      14.7437      0.00000
    405      14.7437      0.00000
    406      14.7797      0.00000
    407      14.8058      0.00000
    408      14.8058      0.00000
    409      15.0521      0.00000
    410      15.0521      0.00000
    411      15.4188      0.00000
    412      15.4188      0.00000
    413      15.4188      0.00000
    414      15.5787      0.00000
    415      15.5788      0.00000
    416      15.5788      0.00000
    417      15.7438      0.00000
    418      15.7438      0.00000
    419      16.0463      0.00000
    420      16.2341      0.00000
    421      16.2341      0.00000
    422      16.2341      0.00000
    423      16.3804      0.00000
    424      16.3804      0.00000
    425      16.4511      0.00000
    426      16.5014      0.00000
    427      16.5014      0.00000
    428      16.5014      0.00000
    429      16.5345      0.00000
    430      16.5345      0.00000
    431      16.5345      0.00000
    432      16.5351      0.00000
    433      16.5351      0.00000
    434      16.5351      0.00000
    435      16.5516      0.00000
    436      16.5516      0.00000
    437      16.5516      0.00000
    438      16.6054      0.00000
    439      16.6054      0.00000
    440      16.8386      0.00000
[...]
   28          m_sum_g                               1.861152                         57   4
   29          distri_slice_herm                     0.004651                         57   4
   30        choleski                              3.650108                           57   3
   31          bg_ppotrf_trtri                       3.649634                         57   4
   32        lincom_distri                         3.242589                           57   3
   33          recon_slice                           0.026913                        114   4
   34          m_sum_g                               2.570996                        114   4
   35          lincom_slice                          0.615966                        114   4
   36      redis_pw_over_bands                   0.000002                              1   2
   37      set_dd_paw                            1.418182                              2   2
   38        set_rsgf_all                          0.000014                            2   3
   39      eddav                              1281.096844                              7   2
   40        phaser                                7.264849                          399   3
   41        redis_proj                           35.913404                        45190   3
   42        redis_pw                             88.600013                        35688   3
   43        w1_copy                               3.616595                        38082   3
   44        fftwav_mpi                           69.408456                        22196   3
   45          fftwav                               69.262527                      22196   4
   46            fft3d                                55.461915                    22196   5
   47        eccp                                  2.009421                         3192   3
   48        truncate_high_frequency_w1            0.024139                        15886   3
   49        setup_precond                         0.150338                         3192   3
   50        hamiltmu                            146.189841                        12694   3
   51          vhamil                               12.544683                      12694   4
   52          raccmu_                              99.191266                      12694   4
   53            overl1                                0.600049                    12694   5
   54            racc0                                98.414570                    12694   5
   55              crrexp_mul_work_add                  29.718834                1015520   6
   56          kinhamil                             33.558663                      12694   4
   57            fftext_mpi                           32.945987                    12694   5
   58              fft3d_mpi                            31.812853                  12694   6
   59                fft3d                                31.698103                12694   7
   60        overl                                 2.530700                        22196   3
   61        orth1                                34.184631                        34890   3
   62        apply_precond                         0.459622                         9502   3
   63        w1_projall                           78.089825                         9502   3
   64          rpro1                                78.007332                       9502   4
   65            crrexp_mul_wave                      25.569219                   760160   5
   66        orth1_nosubindex                      2.725635                         3192   3
   67        distri_slice_herm                     0.048202                         3192   3
   68        bg_change_diagonale                   1.957009                       204288   3
   69        bg_pdssyex_zheevx                    39.757080                          399   3
   70        lincom_distri                        19.085019                          399   3
   71          recon_slice                           0.183215                        798   4
   72          m_sum_g                              14.282264                        798   4
   73          lincom_slice                          4.418014                        798   4
   74      force_and_stress                     64.708539                              1   2
   75        set_charge                            1.144885                            1   3
   76          soft_charge                           1.088710                          1   4
   77            fftwav_mpi                            0.862662                      285   5
   78              fftwav                                0.860863                    285   6
   79                fft3d                                 0.724068                  285   7
   80            pw_charge                             0.138997                      285   5
   81            fft3d_mpi                             0.033010                        1   5
   82              fftbas_plan_mpi                       0.014012                      1   6
   83                dfftw_execute                         0.000939                    3   7
   84                map_backward                          0.012876                    2   7
   85                  map_gather                            0.001170                  2   8
   86                  m_alltoallv_z                         0.011567                  2   8
   87                  map_scatter                           0.000067                  2   8
   88          depsum                                0.023343                          1   4
   89          fft3d_mpi                             0.012783                          1   4
   90            fftbas_plan_mpi                       0.012553                        1   5
   91              dfftw_execute                         0.000305                      3   6
   92              map_backward                          0.010738                      2   6
   93                map_gather                            0.000074                    1   7
   94                m_alltoallv_z                         0.010488                    1   7
   95                map_scatter                           0.000140                    1   7
   96        forloc                                0.020396                            1   3
   97        fornlr                               15.541135                            1   3
   98          rspher_all                            0.169062                          3   4
   99          phaser                                3.063428                        171   4
  100          rpro_isp                             12.225601                        171   4
  101            fftwav_mpi                            3.977604                     1368   5
  102              fftwav                                3.969134                   1368   6
  103                fft3d                                 3.292825                 1368   7
  104            rpromu                                8.220323                      342   5
  105              crrexp_mul_wave                       3.229497                 109440   6
  106        fordep                                0.103725                            1   3
  107          setdij_                               0.103480                          6   4
  108        setdij_                               0.351990                           20   3
  109        set_dd_paw                            0.704207                            1   3
  110          set_rsgf_all                          0.000002                          1   4
  111        strkin                                0.067119                            1   3
  112        strelo                                0.005428                            1   3
  113        strnlr                               46.630969                            1   3
  114          rspher_all                            0.524449                          9   4
  115          phaser                                9.192653                        513   4
  116          rpro_isp                             36.618002                        513   4
  117            fftwav_mpi                           11.730892                     4104   5
  118              fftwav                               11.705617                   4104   6
  119                fft3d                                 9.881088                 4104   7
  120            rpromu                               24.827499                     1026   5
  121              crrexp_mul_wave                       9.721187                 328320   6
  122        fft3d_mpi                             0.042652                           11   3
  123          fftbas_plan_mpi                       0.039275                         11   4
  124            dfftw_execute                         0.003554                       33   5
  125            map_forward                           0.017603                       10   5
  126              map_gather                            0.000379                      5   6
  127              m_alltoallv_z                         0.016114                      5   6
  128              map_scatter                           0.000935                      5   6
  129            map_backward                          0.015486                       12   5
  130              map_gather                            0.000557                      6   6
  131              m_alltoallv_z                         0.013925                      6   6
  132              map_scatter                           0.000826                      6   6
  133        forhar                                0.026762                            2   3
  134        strehar                               0.006624                            1   3
  135        chggra                                0.018232                            1   3
  136          fft3d_mpi                             0.013565                          3   4
  137            fftbas_plan_mpi                       0.012657                        3   5
  138              dfftw_execute                         0.000992                      9   6
  139              map_forward                           0.008275                      4   6
  140                map_gather                            0.000141                    2   7
  141                m_alltoallv_z                         0.007759                    2   7
  142                map_scatter                           0.000319                    2   7
  143              map_backward                          0.002509                      2   6
  144                map_gather                            0.000082                    1   7
  145                m_alltoallv_z                         0.002253                    1   7
  146                map_scatter                           0.000136                    1   7
 
 Flat profile
 ============
 
             routine name                   CPU           calls
 ---------------------------------------------------------------
 eddav                                 749.082066           7
 total_time                            538.705959           1
 fft3d                                 102.154885       41103
 redis_pw                               89.983014       35802
 racc0                                  68.695735       12694
 rpro1                                  52.438113        9502
 bg_pdssyex_zheevx                      39.757080         399
 crrexp_mul_wave                        39.599982     1234400
 redis_proj                             36.582112       45361
 orth1                                  34.184631       34890
 crrexp_mul_work_add                    29.718834     1015520
 rpromu                                 21.701789        1482
 phaser                                 20.548349        1140
 m_sum_g                                18.714412         969
 fftwav                                 16.778247       28409
 vhamil                                 12.544683       12694
 lincom_slice                            5.033980         912
 bg_ppotrf_trtri                         3.649634          57
 w1_copy                                 3.616595       38082
 orth1_nosubindex                        3.380092        3249
 overl                                   2.537174       22253
 set_dd_paw                              2.122373           3
 eccp                                    2.009421        3192
 bg_change_diagonale                     1.957009      204288
 fftext_mpi                              1.133134       12694
 hamiltmu                                0.895229       12694
 rspher_all                              0.878111          14
 setdij_                                 0.620574          29
 kinhamil                                0.612676       12694
 overl1                                  0.600049       12694
 apply_precond                           0.459622        9502
 strnlr                                  0.295865           1
 lincom_distri                           0.230239         456
 recon_slice                             0.210129         912
 fftwav_mpi                              0.184371       28409
 m_alltoallv_z                           0.181212          47
 raccmu_                                 0.176647       12694
 fft3d_mpi                               0.171302       12738
 setup_precond                           0.150338        3192
 pw_charge                               0.138997         285
 rpro_isp                                0.096040         741
 fornlr                                  0.083044           1
 w1_projall                              0.082494        9502
 strkin                                  0.067119           1
 orthch                                  0.065114           1
 soft_charge                             0.054041           1
 distri_slice_herm                       0.052853        3249
 force_and_stress                        0.044415           1
 dfftw_execute                           0.039971         132
 fftbas_plan_mpi                         0.026919          44
 orth1_distri                            0.026786          57
 forhar                                  0.026762           2
 truncate_high_frequency_w1              0.024139       15886
 depsum                                  0.023343           1
 forloc                                  0.020396           1
 set_charge                              0.020049           1
 map_scatter                             0.009258          47
 strehar                                 0.006624           1
 strelo                                  0.005428           1
 map_gather                              0.004980          47
 chggra                                  0.004667           1
 map_backward                            0.000711          44
 map_forward                             0.000699          44
 choleski                                0.000474          57
 fordep                                  0.000245           1
 set_rsgf_all                            0.000016           3
 redis_pw_over_bands                     0.000002           1
 ---------------------------------------------------------------
  summed up times    1903.22125101089     
 
 Accumulative profile
 ====================
 
             routine name                   CPU           calls
 ---------------------------------------------------------------
 total_time                           1903.221251           1
 eddav                                1281.096844           7
 hamiltmu                              146.189841       12694
 fft3d                                 102.154885       41103
 raccmu_                                99.191266       12694
 racc0                                  98.414570       12694
 redis_pw                               89.983014       35802
 fftwav_mpi                             87.419401       28409
 fftwav                                 87.235029       28409
 w1_projall                             78.089825        9502
 rpro1                                  78.007332        9502
 force_and_stress                       64.708539           1
 rpro_isp                               52.976874         741
 strnlr                                 46.630969           1
 bg_pdssyex_zheevx                      39.757080         399
 crrexp_mul_wave                        39.599982     1234400
 redis_proj                             36.582112       45361
 rpromu                                 35.732552        1482
 orth1                                  34.184631       34890
 kinhamil                               33.558663       12694
 fftext_mpi                             32.945987       12694
 fft3d_mpi                              32.133154       12738
 crrexp_mul_work_add                    29.718834     1015520
 lincom_distri                          22.327607         456
 phaser                                 20.548349        1140
 m_sum_g                                18.714412         969
 fornlr                                 15.541135           1
 vhamil                                 12.544683       12694
 orthch                                 11.563040           1
 lincom_slice                            5.033980         912
 choleski                                3.650108          57
 bg_ppotrf_trtri                         3.649634          57
 w1_copy                                 3.616595       38082
 orth1_nosubindex                        3.380092        3249
 orth1_distri                            2.547045          57
 overl                                   2.537174       22253
 set_dd_paw                              2.122389           3
 eccp                                    2.009421        3192
 bg_change_diagonale                     1.957009      204288
 set_charge                              1.144885           1
 soft_charge                             1.088710           1
 rspher_all                              0.878111          14
 setdij_                                 0.620574          29
 overl1                                  0.600049       12694
 apply_precond                           0.459622        9502
 fftbas_plan_mpi                         0.263749          44
 recon_slice                             0.210129         912
 m_alltoallv_z                           0.181212          47
 setup_precond                           0.150338        3192
 pw_charge                               0.138997         285
 fordep                                  0.103725           1
 map_backward                            0.101682          44
 map_forward                             0.095178          44
 strkin                                  0.067119           1
 distri_slice_herm                       0.052853        3249
 dfftw_execute                           0.039971         132
 forhar                                  0.026762           2
 truncate_high_frequency_w1              0.024139       15886
 depsum                                  0.023343           1
 forloc                                  0.020396           1
 chggra                                  0.018232           1
 map_scatter                             0.009258          47
 strehar                                 0.006624           1
 strelo                                  0.005428           1
 map_gather                              0.004980          47
 set_rsgf_all                            0.000016           3
 redis_pw_over_bands                     0.000002           1
 ---------------------------------------------------------------
 
Profiling took   5.138993  3.393586  0.004920  0.004475 seconds
Profiling took   4.222144 seconds
