unknown system                          
           1
     9.966795    0.000000   -3.523794
    -4.983397    8.631497   -3.523794
     0.000000    0.000000   10.571382
   Er   Al   Ga   O 
  12   8  12  48
Direct configuration=     1
   0.25000000  0.87500000  0.62500000
   0.87500000  0.62500000  0.25000000
   0.62500000  0.87500000  0.75000000
   0.87500000  0.75000000  0.62500000
   0.62500000  0.25000000  0.87500000
   0.75000000  0.62500000  0.87500000
   0.75000000  0.12500000  0.37500000
   0.12500000  0.37500000  0.75000000
   0.37500000  0.12500000  0.25000000
   0.12500000  0.25000000  0.37500000
   0.37500000  0.75000000  0.12500000
   0.25000000  0.37500000  0.12500000
   0.50000000  0.50000000  0.50000000
   0.50000000  0.50000000  0.00000000
   0.50000000  0.00000000  0.50000000
   0.00000000  0.50000000  0.50000000
   0.50000000  0.00000000  0.00000000
   0.00000000  0.00000000  0.50000000
   0.00000000  0.50000000  0.00000000
   0.00000000  0.00000000  0.00000000
   0.25000000  0.12500000  0.87500000
   0.75000000  0.87500000  0.12500000
   0.37500000  0.25000000  0.62500000
   0.62500000  0.37500000  0.25000000
   0.12500000  0.75000000  0.87500000
   0.87500000  0.12500000  0.75000000
   0.75000000  0.37500000  0.62500000
   0.37500000  0.62500000  0.75000000
   0.12500000  0.87500000  0.25000000
   0.87500000  0.25000000  0.12500000
   0.62500000  0.75000000  0.37500000
   0.25000000  0.62500000  0.37500000
   0.70050300  0.67352700  0.07951100
   0.82647300  0.52697600  0.40598300
   0.42048900  0.09401700  0.62099200
   0.79949700  0.87900800  0.97302400
   0.79949700  0.42048900  0.82647300
   0.87900800  0.97302400  0.79949700
   0.09401700  0.97302400  0.67352700
   0.97302400  0.79949700  0.87900800
   0.40598300  0.07951100  0.87900800
   0.52697600  0.62099200  0.70050300
   0.62099200  0.70050300  0.52697600
   0.82647300  0.79949700  0.42048900
   0.97302400  0.67352700  0.09401700
   0.87900800  0.40598300  0.07951100
   0.42048900  0.82647300  0.79949700
   0.67352700  0.09401700  0.97302400
   0.07951100  0.87900800  0.40598300
   0.40598300  0.82647300  0.52697600
   0.09401700  0.62099200  0.42048900
   0.59401700  0.92048900  0.12099200
   0.62099200  0.42048900  0.09401700
   0.07951100  0.70050300  0.67352700
   0.52697600  0.40598300  0.82647300
   0.70050300  0.52697600  0.62099200
   0.29949700  0.32647300  0.92048900
   0.17352700  0.47302400  0.59401700
   0.57951100  0.90598300  0.37900800
   0.20050300  0.12099200  0.02697600
   0.20050300  0.57951100  0.17352700
   0.12099200  0.02697600  0.20050300
   0.90598300  0.02697600  0.32647300
   0.02697600  0.20050300  0.12099200
   0.29949700  0.47302400  0.37900800
   0.47302400  0.59401700  0.17352700
   0.92048900  0.29949700  0.32647300
   0.32647300  0.92048900  0.29949700
   0.37900800  0.57951100  0.90598300
   0.90598300  0.37900800  0.57951100
   0.59401700  0.17352700  0.47302400
   0.92048900  0.12099200  0.59401700
   0.32647300  0.90598300  0.02697600
   0.57951100  0.17352700  0.20050300
   0.12099200  0.59401700  0.92048900
   0.02697600  0.32647300  0.90598300
   0.17352700  0.20050300  0.57951100
   0.37900800  0.29949700  0.47302400
   0.47302400  0.37900800  0.29949700
   0.67352700  0.07951100  0.70050300
