 vasp.5.4.3 09Sep16 (build Apr 12 2017 11:03:34) complex                        
  
 executed on      IFC17_CrayMPICH date 2017.06.12  22:17:01
 running   64 mpi-ranks, with    8 threads/rank
 distrk:  each k-point on   64 cores,    1 groups
 distr:  one band on NCORES_PER_BAND=   1 cores,   64 groups


--------------------------------------------------------------------------------------------------------


 INCAR:
 POTCAR:   PAW_PBE Er_3 06Sep2000                 
 POTCAR:   PAW_PBE Al 04Jan2001                   
 POTCAR:   PAW_PBE Ga_d 06Sep2000                 
 POTCAR:   PAW_PBE O 08Apr2002                    

 ----------------------------------------------------------------------------- 
|                                                                             |
|           W    W    AA    RRRRR   N    N  II  N    N   GGGG   !!!           |
|           W    W   A  A   R    R  NN   N  II  NN   N  G    G  !!!           |
|           W    W  A    A  R    R  N N  N  II  N N  N  G       !!!           |
|           W WW W  AAAAAA  RRRRR   N  N N  II  N  N N  G  GGG   !            |
|           WW  WW  A    A  R   R   N   NN  II  N   NN  G    G                |
|           W    W  A    A  R    R  N    N  II  N    N   GGGG   !!!           |
|                                                                             |
|      For optimal performance we recommend to set                            |
|        NCORE= 4 - approx SQRT( number of cores)                             |
|      NCORE specifies how many cores store one orbital (NPAR=cpu/NCORE).     |
|      This setting can  greatly improve the performance of VASP for DFT.     |
|      The default,   NCORE=1            might be grossly inefficient         |
|      on modern multi-core architectures or massively parallel machines.     |
|      Do your own testing !!!!                                               |
|      Unfortunately you need to use the default for GW and RPA calculations. |
|      (for HF NCORE is supported but not extensively tested yet)             |
|                                                                             |
 ----------------------------------------------------------------------------- 

 POTCAR:   PAW_PBE Er_3 06Sep2000                 
   VRHFIN =Er : [core=Xe4]                                                      
   LEXCH  = PE                                                                  
   EATOM  =   671.8481 eV,   49.3794 Ry                                         
                                                                                
   TITEL  = PAW_PBE Er_3 06Sep2000                                              
   LULTRA =        F    use ultrasoft PP ?                                      
   IUNSCR =        1    unscreen: 0-lin 1-nonlin 2-no                           
   RPACOR =    2.300    partial core radius                                     
   POMASS =  167.260; ZVAL   =    9.000    mass and valenz                      
   RCORE  =    3.000    outmost cutoff radius                                   
   RWIGS  =    3.000; RWIGS  =    1.588    wigner-seitz radius (au A)           
   ENMAX  =  155.053; ENMIN  =  116.290 eV                                      
   RCLOC  =    2.308    cutoff for local pot                                    
   LCOR   =        T    correct aug charges                                     
   LPAW   =        T    paw PP                                                  
   EAUG   =  307.908                                                            
   DEXC   =    -.035                                                            
   RMAX   =    3.703    core radius for proj-oper                               
   RAUG   =    1.300    factor for augmentation sphere                          
   RDEP   =    3.178    radius for radial grids                                 
   QCUT   =   -3.376; QGAM   =    6.752    optimization parameters              
                                                                                
   Description                                                                  
     l     E      TYP  RCUT    TYP  RCUT                                        
     0   .000     23  3.000                                                     
     0   .800     23  3.000                                                     
     1   .000     23  3.000                                                     
     1   .000     23  3.000                                                     
     2   .000     23  3.000                                                     
     2   .000     23  3.000                                                     
  local pseudopotential read in
  partial core-charges read in
  atomic valenz-charges read in
  non local Contribution for L=           0  read in
    real space projection operators read in
  non local Contribution for L=           0  read in
    real space projection operators read in
  non local Contribution for L=           1  read in
    real space projection operators read in
  non local Contribution for L=           1  read in
    real space projection operators read in
  non local Contribution for L=           2  read in
    real space projection operators read in
  non local Contribution for L=           2  read in
    real space projection operators read in
    PAW grid and wavefunctions read in
 
   number of l-projection  operators is LMAX  =           6
   number of lm-projection operators is LMMAX =          18
 
 POTCAR:   PAW_PBE Al 04Jan2001                   
   VRHFIN =Al: s2p1                                                             
   LEXCH  = PE                                                                  
   EATOM  =    53.5387 eV,    3.9350 Ry                                         
                                                                                
   TITEL  = PAW_PBE Al 04Jan2001                                                
   LULTRA =        F    use ultrasoft PP ?                                      
   IUNSCR =        1    unscreen: 0-lin 1-nonlin 2-no                           
   RPACOR =    1.500    partial core radius                                     
   POMASS =   26.982; ZVAL   =    3.000    mass and valenz                      
   RCORE  =    1.900    outmost cutoff radius                                   
   RWIGS  =    2.650; RWIGS  =    1.402    wigner-seitz radius (au A)           
   ENMAX  =  240.300; ENMIN  =  180.225 eV                                      
   ICORE  =        2    local potential                                         
   LCOR   =        T    correct aug charges                                     
   LPAW   =        T    paw PP                                                  
   EAUG   =  291.052                                                            
   DEXC   =    -.041                                                            
   RMAX   =    2.974    core radius for proj-oper                               
   RAUG   =    1.300    factor for augmentation sphere                          
   RDEP   =    1.966    radius for radial grids                                 
   QCUT   =   -4.203; QGAM   =    8.405    optimization parameters              
                                                                                
   Description                                                                  
     l     E      TYP  RCUT    TYP  RCUT                                        
     0   .000     23  1.900                                                     
     0   .000     23  1.900                                                     
     1   .000     23  1.900                                                     
     1  1.000     23  1.900                                                     
     2   .000      7  1.900                                                     
  local pseudopotential read in
  partial core-charges read in
  atomic valenz-charges read in
  non local Contribution for L=           0  read in
    real space projection operators read in
  non local Contribution for L=           0  read in
    real space projection operators read in
  non local Contribution for L=           1  read in
    real space projection operators read in
  non local Contribution for L=           1  read in
    real space projection operators read in
    PAW grid and wavefunctions read in
 
   number of l-projection  operators is LMAX  =           4
   number of lm-projection operators is LMMAX =           8
 
 POTCAR:   PAW_PBE Ga_d 06Sep2000                 
   VRHFIN =Ga: s2p1                                                             
   LEXCH  = PE                                                                  
   EATOM  =  2149.0616 eV,  157.9516 Ry                                         
                                                                                
   TITEL  = PAW_PBE Ga_d 06Sep2000                                              
   LULTRA =        F    use ultrasoft PP ?                                      
   IUNSCR =        1    unscreen: 0-lin 1-nonlin 2-no                           
   RPACOR =    2.000    partial core radius                                     
   POMASS =   69.723; ZVAL   =   13.000    mass and valenz                      
   RCORE  =    2.300    outmost cutoff radius                                   
   RWIGS  =    2.300; RWIGS  =    1.217    wigner-seitz radius (au A)           
   ENMAX  =  282.697; ENMIN  =  212.022 eV                                      
   ICORE  =        3    local potential                                         
   LCOR   =        T    correct aug charges                                     
   LPAW   =        T    paw PP                                                  
   EAUG   =  490.690                                                            
   DEXC   =    -.001                                                            
   RMAX   =    2.742    core radius for proj-oper                               
   RAUG   =    1.300    factor for augmentation sphere                          
   RDEP   =    2.413    radius for radial grids                                 
   QCUT   =   -4.558; QGAM   =    9.117    optimization parameters              
                                                                                
   Description                                                                  
     l     E      TYP  RCUT    TYP  RCUT                                        
     2   .000     23  2.300                                                     
     2  -.400     23  2.300                                                     
     0   .000     23  2.300                                                     
     0   .000     23  2.300                                                     
     1   .000     23  2.300                                                     
     1   .000     23  2.300                                                     
     3  -.100      7  2.300                                                     
  local pseudopotential read in
  partial core-charges read in
  atomic valenz-charges read in
  non local Contribution for L=           2  read in
    real space projection operators read in
  non local Contribution for L=           2  read in
    real space projection operators read in
  non local Contribution for L=           0  read in
    real space projection operators read in
  non local Contribution for L=           0  read in
    real space projection operators read in
  non local Contribution for L=           1  read in
    real space projection operators read in
  non local Contribution for L=           1  read in
    real space projection operators read in
    PAW grid and wavefunctions read in
 
   number of l-projection  operators is LMAX  =           6
   number of lm-projection operators is LMMAX =          18
 
 POTCAR:   PAW_PBE O 08Apr2002                    
   VRHFIN =O: s2p4                                                              
   LEXCH  = PE                                                                  
   EATOM  =   432.3788 eV,   31.7789 Ry                                         
                                                                                
   TITEL  = PAW_PBE O 08Apr2002                                                 
   LULTRA =        F    use ultrasoft PP ?                                      
   IUNSCR =        0    unscreen: 0-lin 1-nonlin 2-no                           
   RPACOR =     .000    partial core radius                                     
   POMASS =   16.000; ZVAL   =    6.000    mass and valenz                      
   RCORE  =    1.520    outmost cutoff radius                                   
   RWIGS  =    1.550; RWIGS  =     .820    wigner-seitz radius (au A)           
   ENMAX  =  400.000; ENMIN  =  300.000 eV                                      
   ICORE  =        2    local potential                                         
   LCOR   =        T    correct aug charges                                     
   LPAW   =        T    paw PP                                                  
   EAUG   =  605.392                                                            
   DEXC   =     .000                                                            
   RMAX   =    2.264    core radius for proj-oper                               
   RAUG   =    1.300    factor for augmentation sphere                          
   RDEP   =    1.550    radius for radial grids                                 
   QCUT   =   -5.520; QGAM   =   11.041    optimization parameters              
                                                                                
   Description                                                                  
     l     E      TYP  RCUT    TYP  RCUT                                        
     0   .000     23  1.200                                                     
     0  -.700     23  1.200                                                     
     1   .000     23  1.520                                                     
     1   .600     23  1.520                                                     
     2   .000      7  1.500                                                     
  local pseudopotential read in
  atomic valenz-charges read in
  non local Contribution for L=           0  read in
    real space projection operators read in
  non local Contribution for L=           0  read in
    real space projection operators read in
  non local Contribution for L=           1  read in
    real space projection operators read in
  non local Contribution for L=           1  read in
    real space projection operators read in
    PAW grid and wavefunctions read in
 
   number of l-projection  operators is LMAX  =           4
   number of lm-projection operators is LMMAX =           8
 
 Optimization of the real space projectors (new method)

 maximal supplied QI-value         = 12.47
 optimisation between [QCUT,QGAM] = [ 11.60, 23.32] = [ 37.68,152.32] Ry 
 Optimized for a Real-space Cutoff    1.83 Angstroem

   l    n(q)    QCUT    max X(q) W(low)/X(q) W(high)/X(q)  e(spline) 
   0     13    11.599    26.534    0.17E-04    0.24E-06    0.41E-07
   0     13    11.599    46.083    0.23E-04    0.40E-05    0.56E-06
   1     12    11.599     6.984    0.61E-06    0.74E-06    0.89E-07
   1     12    11.599     8.834    0.64E-05    0.14E-04    0.11E-05
   2     12    11.599     5.077    0.92E-05    0.44E-05    0.70E-07
   2     12    11.599   219.387    0.23E-03    0.44E-04    0.18E-05
 Optimization of the real space projectors (new method)

 maximal supplied QI-value         = 19.84
 optimisation between [QCUT,QGAM] = [ 11.51, 23.22] = [ 37.09,150.92] Ry 
 Optimized for a Real-space Cutoff    1.18 Angstroem

   l    n(q)    QCUT    max X(q) W(low)/X(q) W(high)/X(q)  e(spline) 
   0      8    11.508    13.410    0.14E-04    0.92E-05    0.50E-08
   0      8    11.508   140.052    0.11E-03    0.16E-03    0.39E-07
   1      8    11.508     9.624    0.12E-04    0.31E-04    0.22E-07
   1      8    11.508    53.353    0.21E-03    0.91E-04    0.68E-07
 Optimization of the real space projectors (new method)

 maximal supplied QI-value         = 16.25
 optimisation between [QCUT,QGAM] = [ 11.54, 23.24] = [ 37.28,151.24] Ry 
 Optimized for a Real-space Cutoff    1.28 Angstroem

   l    n(q)    QCUT    max X(q) W(low)/X(q) W(high)/X(q)  e(spline) 
   2      8    11.539     6.328    0.71E-04    0.10E-03    0.17E-07
   2      8    11.539     9.625    0.13E-03    0.37E-03    0.17E-06
   0      9    11.539     9.711    0.22E-04    0.17E-04    0.10E-07
   0      9    11.539    32.764    0.11E-03    0.16E-03    0.65E-07
   1      8    11.539     7.413    0.41E-04    0.24E-04    0.39E-07
   1      8    11.539    31.472    0.22E-03    0.35E-04    0.14E-06
 Optimization of the real space projectors (new method)

 maximal supplied QI-value         = 24.76
 optimisation between [QCUT,QGAM] = [ 11.64, 23.27] = [ 37.91,151.63] Ry 
 Optimized for a Real-space Cutoff    1.08 Angstroem

   l    n(q)    QCUT    max X(q) W(low)/X(q) W(high)/X(q)  e(spline) 
   0      7    11.635     4.192    0.54E-04    0.80E-04    0.26E-07
   0      7    11.635     8.473    0.70E-04    0.40E-03    0.21E-06
   1      7    11.635     2.474    0.39E-04    0.14E-03    0.23E-07
   1      7    11.635     3.912    0.25E-03    0.37E-03    0.22E-06
 PAW_PBE Er_3 06Sep2000                 :
 energy of atom  1       EATOM= -671.8481
 kinetic energy error for atom=    0.0002 (will be added to EATOM!!)
 PAW_PBE Al 04Jan2001                   :
 energy of atom  2       EATOM=  -53.5387
 kinetic energy error for atom=    0.0002 (will be added to EATOM!!)
 PAW_PBE Ga_d 06Sep2000                 :
 energy of atom  3       EATOM=-2149.0616
 kinetic energy error for atom=    0.0026 (will be added to EATOM!!)
 PAW_PBE O 08Apr2002                    :
 energy of atom  4       EATOM= -432.3788
 kinetic energy error for atom=    0.0208 (will be added to EATOM!!)
 
 
 POSCAR: Er12 Al8 Ga12 O48                       
  positions in direct lattice
  velocities in cartesian coordinates
 exchange correlation table for  LEXCH =        8
   RHO(1)=    0.500       N(1)  =     2000
   RHO(2)=  100.500       N(2)  =     4000
 


--------------------------------------------------------------------------------------------------------


 ion  position               nearest neighbor table
   1  0.250  0.875  0.625-  39 2.32  50 2.32  51 2.32  41 2.32  54 2.44  47 2.44  35 2.44  49 2.44
                            21 3.05  32 3.05  16 3.41  18 3.41  17 3.41  15 3.41   5 3.74   2 3.74
   2  0.875  0.625  0.250-  34 2.32  45 2.32  49 2.32  53 2.32  44 2.44  33 2.44  46 2.44  51 2.44
                            24 3.05  29 3.05  18 3.41  16 3.41  19 3.41  14 3.41   5 3.74   4 3.74
   3  0.625  0.875  0.750-  42 2.32  80 2.32  47 2.32  38 2.32  43 2.44  36 2.44  48 2.44  50 2.44
                            26 3.05  28 3.05  13 3.41  15 3.41  17 3.41  20 3.41   5 3.74   6 3.74
   4  0.875  0.750  0.625-  44 2.32  40 2.32  54 2.32  43 2.32  38 2.44  56 2.44  34 2.44  39 2.44
                            25 3.05  31 3.05  16 3.41  18 3.41  20 3.41  13 3.41   2 3.74   6 3.74
   5  0.625  0.250  0.875-  48 2.32  55 2.32  35 2.32  46 2.32  80 2.44  37 2.44  53 2.44  41 2.44
                            23 3.05  30 3.05  14 3.41  15 3.41  17 3.41  19 3.41   3 3.74   6 3.74
   6  0.750  0.625  0.875-  36 2.32  37 2.32  56 2.32  33 2.32  40 2.44  42 2.44  55 2.44  45 2.44
                            22 3.05  27 3.05  20 3.41  19 3.41  13 3.41  14 3.41   5 3.74   3 3.74
   7  0.750  0.125  0.375-  63 2.32  71 2.32  70 2.32  52 2.32  67 2.44  74 2.44  59 2.44  72 2.44
                            22 3.05  27 3.05  16 3.41  18 3.41  17 3.41  15 3.41  11 3.74   8 3.74
   8  0.125  0.375  0.750-  58 2.32  76 2.32  72 2.32  69 2.32  77 2.44  57 2.44  75 2.44  70 2.44
                            26 3.05  28 3.05  18 3.41  16 3.41  19 3.41  14 3.41  11 3.74  10 3.74
   9  0.375  0.125  0.250-  79 2.32  68 2.32  74 2.32  62 2.32  78 2.44  60 2.44  73 2.44  71 2.44
                            24 3.05  29 3.05  13 3.41  15 3.41  17 3.41  20 3.41  11 3.74  12 3.74
  10  0.125  0.250  0.375-  77 2.32  64 2.32  67 2.32  78 2.32  62 2.44  65 2.44  58 2.44  63 2.44
                            23 3.05  30 3.05  16 3.41  18 3.41  20 3.41  13 3.41   8 3.74  12 3.74
  11  0.375  0.750  0.125-  73 2.32  66 2.32  59 2.32  75 2.32  68 2.44  61 2.44  69 2.44  52 2.44
                            25 3.05  31 3.05  14 3.41  15 3.41  17 3.41  19 3.41   9 3.74  12 3.74
  12  0.250  0.375  0.125-  60 2.32  61 2.32  65 2.32  57 2.32  64 2.44  79 2.44  66 2.44  76 2.44
                            21 3.05  32 3.05  20 3.41  19 3.41  13 3.41  14 3.41  11 3.74   9 3.74
  13  0.500  0.500  0.500-  43 1.94  78 1.94  42 1.94  79 1.94  56 1.94  65 1.94   3 3.41   9 3.41
                             6 3.41  12 3.41  10 3.41   4 3.41
  14  0.500  0.500  0.000-  33 1.94  57 1.94  55 1.94  66 1.94  53 1.94  69 1.94   5 3.41  11 3.41
                             6 3.41  12 3.41   2 3.41   8 3.41
  15  0.500  0.000  0.500-  68 1.94  80 1.94  71 1.94  50 1.94  59 1.94  35 1.94   5 3.41  11 3.41
                             9 3.41   3 3.41   1 3.41   7 3.41
  16  0.000  0.500  0.500-  54 1.94  67 1.94  58 1.94  34 1.94  51 1.94  70 1.94   1 3.41   7 3.41
                             4 3.41  10 3.41   8 3.41   2 3.41
  17  0.500  0.000  0.000-  47 1.94  74 1.94  73 1.94  48 1.94  41 1.94  52 1.94   5 3.41  11 3.41
                             9 3.41   3 3.41   1 3.41   7 3.41
  18  0.000  0.000  0.500-  44 1.94  77 1.94  63 1.94  39 1.94  72 1.94  49 1.94   2 3.41   8 3.41
                             4 3.41  10 3.41   1 3.41   7 3.41
  19  0.000  0.500  0.000-  37 1.94  61 1.94  45 1.94  76 1.94  75 1.94  46 1.94   2 3.41   8 3.41
                             6 3.41  12 3.41  11 3.41   5 3.41
  20  0.000  0.000  0.000-  40 1.94  64 1.94  62 1.94  38 1.94  36 1.94  60 1.94   6 3.41  12 3.41
                            10 3.41   4 3.41   3 3.41   9 3.41
  21  0.250  0.125  0.875-  41 1.86  39 1.86  57 1.86  60 1.86   1 3.05  12 3.05
  22  0.750  0.875  0.125-  52 1.86  63 1.86  33 1.86  36 1.86   6 3.05   7 3.05
  23  0.375  0.250  0.625-  35 1.86  55 1.86  78 1.86  77 1.86   5 3.05  10 3.05
  24  0.625  0.375  0.250-  53 1.86  34 1.86  74 1.86  79 1.86   2 3.05   9 3.05
  25  0.125  0.750  0.875-  75 1.86  73 1.86  54 1.86  40 1.86   4 3.05  11 3.05
  26  0.875  0.125  0.750-  72 1.86  76 1.86  38 1.86  80 1.86   3 3.05   8 3.05
  27  0.750  0.375  0.625-  70 1.86  71 1.86  56 1.86  37 1.86   6 3.05   7 3.05
  28  0.375  0.625  0.750-  69 1.86  58 1.86  47 1.86  42 1.86   3 3.05   8 3.05
  29  0.125  0.875  0.250-  49 1.86  45 1.86  62 1.86  68 1.86   2 3.05   9 3.05
  30  0.875  0.250  0.125-  46 1.86  48 1.86  67 1.86  64 1.86   5 3.05  10 3.05
  31  0.625  0.750  0.375-  59 1.86  66 1.86  43 1.86  44 1.86   4 3.05  11 3.05
  32  0.250  0.625  0.375-  51 1.86  50 1.86  65 1.86  61 1.86   1 3.05  12 3.05
  33  0.701  0.674  0.080-  22 1.86  14 1.94   6 2.32   2 2.44
  34  0.826  0.527  0.406-  24 1.86  16 1.94   2 2.32   4 2.44
  35  0.420  0.094  0.621-  23 1.86  15 1.94   5 2.32   1 2.44
  36  0.799  0.879  0.973-  22 1.86  20 1.94   6 2.32   3 2.44
  37  0.799  0.420  0.826-  27 1.86  19 1.94   6 2.32   5 2.44
  38  0.879  0.973  0.799-  26 1.86  20 1.94   3 2.32   4 2.44
  39  0.094  0.973  0.674-  21 1.86  18 1.94   1 2.32   4 2.44
  40  0.973  0.799  0.879-  25 1.86  20 1.94   4 2.32   6 2.44
  41  0.406  0.080  0.879-  21 1.86  17 1.94   1 2.32   5 2.44
  42  0.527  0.621  0.701-  28 1.86  13 1.94   3 2.32   6 2.44
  43  0.621  0.701  0.527-  31 1.86  13 1.94   4 2.32   3 2.44
  44  0.826  0.799  0.420-  31 1.86  18 1.94   4 2.32   2 2.44
  45  0.973  0.674  0.094-  29 1.86  19 1.94   2 2.32   6 2.44
  46  0.879  0.406  0.080-  30 1.86  19 1.94   5 2.32   2 2.44
  47  0.420  0.826  0.799-  28 1.86  17 1.94   3 2.32   1 2.44
  48  0.674  0.094  0.973-  30 1.86  17 1.94   5 2.32   3 2.44
  49  0.080  0.879  0.406-  29 1.86  18 1.94   2 2.32   1 2.44
  50  0.406  0.826  0.527-  32 1.86  15 1.94   1 2.32   3 2.44
  51  0.094  0.621  0.420-  32 1.86  16 1.94   1 2.32   2 2.44
  52  0.594  0.920  0.121-  22 1.86  17 1.94   7 2.32  11 2.44
  53  0.621  0.420  0.094-  24 1.86  14 1.94   2 2.32   5 2.44
  54  0.080  0.701  0.674-  25 1.86  16 1.94   4 2.32   1 2.44
  55  0.527  0.406  0.826-  23 1.86  14 1.94   5 2.32   6 2.44
  56  0.701  0.527  0.621-  27 1.86  13 1.94   6 2.32   4 2.44
  57  0.299  0.326  0.920-  21 1.86  14 1.94  12 2.32   8 2.44
  58  0.174  0.473  0.594-  28 1.86  16 1.94   8 2.32  10 2.44
  59  0.580  0.906  0.379-  31 1.86  15 1.94  11 2.32   7 2.44
  60  0.201  0.121  0.027-  21 1.86  20 1.94  12 2.32   9 2.44
  61  0.201  0.580  0.174-  32 1.86  19 1.94  12 2.32  11 2.44
  62  0.121  0.027  0.201-  29 1.86  20 1.94   9 2.32  10 2.44
  63  0.906  0.027  0.326-  22 1.86  18 1.94   7 2.32  10 2.44
  64  0.027  0.201  0.121-  30 1.86  20 1.94  10 2.32  12 2.44
  65  0.299  0.473  0.379-  32 1.86  13 1.94  12 2.32  10 2.44
  66  0.473  0.594  0.174-  31 1.86  14 1.94  11 2.32  12 2.44
  67  0.920  0.299  0.326-  30 1.86  16 1.94  10 2.32   7 2.44
  68  0.326  0.920  0.299-  29 1.86  15 1.94   9 2.32  11 2.44
  69  0.379  0.580  0.906-  28 1.86  14 1.94   8 2.32  11 2.44
  70  0.906  0.379  0.580-  27 1.86  16 1.94   7 2.32   8 2.44
  71  0.594  0.174  0.473-  27 1.86  15 1.94   7 2.32   9 2.44
  72  0.920  0.121  0.594-  26 1.86  18 1.94   8 2.32   7 2.44
  73  0.326  0.906  0.027-  25 1.86  17 1.94  11 2.32   9 2.44
  74  0.580  0.174  0.201-  24 1.86  17 1.94   9 2.32   7 2.44
  75  0.121  0.594  0.920-  25 1.86  19 1.94  11 2.32   8 2.44
  76  0.027  0.326  0.906-  26 1.86  19 1.94   8 2.32  12 2.44
  77  0.174  0.201  0.580-  23 1.86  18 1.94  10 2.32   8 2.44
  78  0.379  0.299  0.473-  23 1.86  13 1.94  10 2.32   9 2.44
  79  0.473  0.379  0.299-  24 1.86  13 1.94   9 2.32  12 2.44
  80  0.674  0.080  0.701-  26 1.86  15 1.94   3 2.32   5 2.44
 
  LATTYP: Found a body centered cubic cell.
 ALAT       =    12.2067800982
  
  Lattice vectors:
  
 A1 = (   9.9667950000,   0.0000000000,  -3.5237940000)
 A2 = (  -4.9833970000,   8.6314970000,  -3.5237940000)
 A3 = (   0.0000000000,   0.0000000000,  10.5713820000)


Analysis of symmetry for initial positions (statically):
=====================================================================
 Subroutine PRICEL returns:
 Original cell was already a primitive cell.
 

 Routine SETGRP: Setting up the symmetry group for a 
 body centered cubic supercell.


 Subroutine GETGRP returns: Found 48 space group operations
 (whereof  6 operations were pure point group operations)
 out of a pool of 48 trial point group operations.


The static configuration has the point symmetry S_6 .
 The point group associated with its full space group is O_h .


Analysis of symmetry for dynamics (positions and initial velocities):
=====================================================================
 Subroutine PRICEL returns:
 Original cell was already a primitive cell.
 

 Routine SETGRP: Setting up the symmetry group for a 
 body centered cubic supercell.


 Subroutine GETGRP returns: Found 48 space group operations
 (whereof  6 operations were pure point group operations)
 out of a pool of 48 trial point group operations.


The dynamic configuration has the point symmetry S_6 .
 The point group associated with its full space group is O_h .


Analysis of structural, dynamic, and magnetic symmetry:
=====================================================================
 Subroutine PRICEL returns:
 Original cell was already a primitive cell.
 

 Routine SETGRP: Setting up the symmetry group for a 
 body centered cubic supercell.


 Subroutine GETGRP returns: Found 48 space group operations
 (whereof  6 operations were pure point group operations)
 out of a pool of 48 trial point group operations.


The magnetic configuration has the point symmetry S_6 .
 The point group associated with its full space group is O_h .


 Subroutine INISYM returns: Found 48 space group operations
 (whereof  6 operations are pure point group operations),
 and found     1 'primitive' translations

 
 
 KPOINTS: pymatgen 4.7.6+ generated KPOINTS with g

Automatic generation of k-mesh.
Space group operators:
 irot       det(A)        alpha          n_x          n_y          n_z        tau_x        tau_y        tau_z
    1     1.000000     0.000001     1.000000     0.000000     0.000000     0.000000     0.000000     0.000000
    2    -1.000000     0.000001     1.000000     0.000000     0.000000     0.000000     0.000000     0.000000
    3     1.000000   120.000000    -0.471405    -0.816497    -0.333333     0.000000     0.000000     0.000000
    4    -1.000000   120.000000    -0.471405    -0.816497    -0.333333     0.000000     0.000000     0.000000
    5     1.000000   120.000000     0.471405     0.816497     0.333333     0.000000     0.000000     0.000000
    6    -1.000000   120.000000     0.471405     0.816497     0.333333     0.000000     0.000000     0.000000
    7     1.000000    90.000000    -0.408248    -0.707107     0.577350    -0.000000     0.500000    -0.000000
    8    -1.000000    90.000000    -0.408248    -0.707107     0.577350    -0.000000     0.500000    -0.000000
    9     1.000000   180.000000     0.866025     0.500000     0.000000    -0.000000     0.500000    -0.000000
   10    -1.000000   180.000000     0.866025     0.500000     0.000000    -0.000000     0.500000    -0.000000
   11     1.000000    90.000000     0.816497    -0.000000     0.577350    -0.000000     0.500000    -0.000000
   12    -1.000000    90.000000     0.816497    -0.000000     0.577350    -0.000000     0.500000    -0.000000
   13     1.000000   179.999999     0.408248     0.707107    -0.577350     0.500000     0.000000     0.500000
   14    -1.000000   179.999999     0.408248     0.707107    -0.577350     0.500000     0.000000     0.500000
   15     1.000000   120.000000     0.942809    -0.000000    -0.333333     0.500000     0.000000     0.500000
   16    -1.000000   120.000000     0.942809    -0.000000    -0.333333     0.500000     0.000000     0.500000
   17     1.000000   120.000000     0.471405    -0.816497     0.333333     0.500000     0.000000     0.500000
   18    -1.000000   120.000000     0.471405    -0.816497     0.333333     0.500000     0.000000     0.500000
   19     1.000000    90.000000     0.408248     0.707107    -0.577350     0.000000     0.000000     0.500000
   20    -1.000000    90.000000     0.408248     0.707107    -0.577350     0.000000     0.000000     0.500000
   21     1.000000    90.000000     0.408248    -0.707107    -0.577350     0.000000     0.000000     0.500000
   22    -1.000000    90.000000     0.408248    -0.707107    -0.577350     0.000000     0.000000     0.500000
   23     1.000000   180.000000     0.000000     1.000000     0.000000     0.000000     0.000000     0.500000
   24    -1.000000   180.000000     0.000000     1.000000     0.000000     0.000000     0.000000     0.500000
   25     1.000000   120.000000    -0.471404     0.816497    -0.333333     0.500000     0.500000    -0.000000
   26    -1.000000   120.000000    -0.471404     0.816497    -0.333333     0.500000     0.500000    -0.000000
   27     1.000000   120.000000     0.000000     0.000000    -1.000000     0.500000     0.500000    -0.000000
   28    -1.000000   120.000000     0.000000     0.000000    -1.000000     0.500000     0.500000    -0.000000
   29     1.000000   180.000000    -0.408248     0.707107     0.577350     0.500000     0.500000    -0.000000
   30    -1.000000   180.000000    -0.408248     0.707107     0.577350     0.500000     0.500000    -0.000000
   31     1.000000    90.000000    -0.816497     0.000000    -0.577350     0.500000     0.000000    -0.000000
   32    -1.000000    90.000000    -0.816497     0.000000    -0.577350     0.500000     0.000000    -0.000000
   33     1.000000   179.999999     0.288675     0.500000     0.816497     0.500000     0.000000    -0.000000
   34    -1.000000   179.999999     0.288675     0.500000     0.816497     0.500000     0.000000    -0.000000
   35     1.000000    90.000000    -0.408248     0.707107     0.577350     0.500000     0.000000    -0.000000
   36    -1.000000    90.000000    -0.408248     0.707107     0.577350     0.500000     0.000000    -0.000000
   37     1.000000   120.000000    -0.942809     0.000000     0.333333    -0.000000     0.500000     0.500000
   38    -1.000000   120.000000    -0.942809     0.000000     0.333333    -0.000000     0.500000     0.500000
   39     1.000000   179.999999     0.816497    -0.000000     0.577350    -0.000000     0.500000     0.500000
   40    -1.000000   179.999999     0.816497    -0.000000     0.577350    -0.000000     0.500000     0.500000
   41     1.000000   120.000000     0.000000     0.000000     1.000000    -0.000000     0.500000     0.500000
   42    -1.000000   120.000000     0.000000     0.000000     1.000000    -0.000000     0.500000     0.500000
   43     1.000000   179.999999    -0.288675     0.500000    -0.816497     0.500000     0.500000     0.500000
   44    -1.000000   179.999999    -0.288675     0.500000    -0.816497     0.500000     0.500000     0.500000
   45     1.000000   180.000000     0.866025    -0.500000     0.000000     0.500000     0.500000     0.500000
   46    -1.000000   180.000000     0.866025    -0.500000     0.000000     0.500000     0.500000     0.500000
   47     1.000000   180.000000     0.577350    -0.000000    -0.816497     0.500000     0.500000     0.500000
   48    -1.000000   180.000000     0.577350    -0.000000    -0.816497     0.500000     0.500000     0.500000
 
 Subroutine IBZKPT returns following result:
 ===========================================
 
 Found      2 irreducible k-points:
 
 Following reciprocal coordinates:
            Coordinates               Weight
  0.250000  0.250000  0.250000      2.000000
 -0.250000  0.250000  0.250000      6.000000
 
 Following cartesian coordinates:
            Coordinates               Weight
  0.033444  0.057927  0.023649      2.000000
 -0.016722  0.028964  0.023649      6.000000
 


--------------------------------------------------------------------------------------------------------




 Dimension of arrays:
   k-points           NKPTS =      2   k-points in BZ     NKDIM =      2   number of bands    NBANDS=    384
   number of dos      NEDOS =    301   number of ions     NIONS =     80
   non local maximal  LDIM  =      6   non local SUM 2l+1 LMDIM =     18
   total plane-waves  NPLWV = 512000
   max r-space proj   IRMAX =  14536   max aug-charges    IRDMAX=  43117
   dimension x,y,z NGX =    80 NGY =   80 NGZ =   80
   dimension x,y,z NGXF=   160 NGYF=  160 NGZF=  160
   support grid    NGXF=   160 NGYF=  160 NGZF=  160
   ions per type =              12   8  12  48
 NGX,Y,Z   is equivalent  to a cutoff of  12.58, 12.58, 12.58 a.u.
 NGXF,Y,Z  is equivalent  to a cutoff of  25.16, 25.16, 25.16 a.u.


 I would recommend the setting:
   dimension x,y,z NGX =    79 NGY =   79 NGZ =   79
 SYSTEM =  unknown system                          
 POSCAR =  Er12 Al8 Ga12 O48                       

 Startparameter for this run:
   NWRITE =      2    write-flag & timer
   PREC   = accura    normal or accurate (medium, high low for compatibility)
   ISTART =      0    job   : 0-new  1-cont  2-samecut
   ICHARG =      1    charge: 1-file 2-atom 10-const
   ISPIN  =      2    spin polarized calculation?
   LNONCOLLINEAR =      F non collinear calculations
   LSORBIT =      F    spin-orbit coupling
   INIWAV =      1    electr: 0-lowe 1-rand  2-diag
   LASPH  =      F    aspherical Exc in radial PAW
   METAGGA=      F    non-selfconsistent MetaGGA calc.

 Electronic Relaxation 1
   ENCUT  =  520.0 eV  38.22 Ry    6.18 a.u.  19.66 19.66 19.66*2*pi/ulx,y,z
   ENINI  =  520.0     initial cutoff
   ENAUG  =  605.4 eV  augmentation charge cutoff
   NELM   =    100;   NELMIN=  5; NELMDL= -5     # of ELM steps 
   EDIFF  = 0.1E-06   stopping-criterion for ELM
   LREAL  =      T    real-space projection
   NLSPLINE    = F    spline interpolate recip. space projectors
   LCOMPAT=      F    compatible to vasp.4.4
   GGA_COMPAT  = T    GGA compatible to vasp.4.4-vasp.4.6
   LMAXPAW     = -100 max onsite density
   LMAXMIX     =    2 max onsite mixed and CHGCAR
   VOSKOWN=      0    Vosko Wilk Nusair interpolation
   ROPT   =   -0.00025  -0.00025  -0.00025  -0.00025
 Ionic relaxation
   EDIFFG = -.1E-02   stopping-criterion for IOM
   NSW    =    500    number of steps for IOM
   NBLOCK =      1;   KBLOCK =    500    inner block; outer block 
   IBRION =      2    ionic relax: 0-MD 1-quasi-New 2-CG
   NFREE  =      1    steps in history (QN), initial steepest desc. (CG)
   ISIF   =      3    stress and relaxation
   IWAVPR =     11    prediction:  0-non 1-charg 2-wave 3-comb
   ISYM   =      2    0-nonsym 1-usesym 2-fastsym
   LCORR  =      T    Harris-Foulkes like correction to forces

   POTIM  = 0.5000    time-step for ionic-motion
   TEIN   =    0.0    initial temperature
   TEBEG  =    0.0;   TEEND  =   0.0 temperature during run
   SMASS  =  -3.00    Nose mass-parameter (am)
   estimated Nose-frequenzy (Omega)   =  0.10E-29 period in steps =****** mass=  -0.255E-26a.u.
   SCALEE = 1.0000    scale energy and forces
   NPACO  =    256;   APACO  = 16.0  distance and # of slots for P.C.
   PSTRESS=    0.0 pullay stress

  Mass of Ions in am
   POMASS = 167.26 26.98 69.72 16.00
  Ionic Valenz
   ZVAL   =   9.00  3.00 13.00  6.00
  Atomic Wigner-Seitz radii
   RWIGS  =  -1.00 -1.00 -1.00 -1.00
  virtual crystal weights 
   VCA    =   1.00  1.00  1.00  1.00
   NELECT =     576.0000    total number of electrons
   NUPDOWN=      -1.0000    fix difference up-down

 DOS related values:
   EMIN   =  10.00;   EMAX   =-10.00  energy-range for DOS
   EFERMI =   0.00
   ISMEAR =     0;   SIGMA  =   0.05  broadening in eV -4-tet -1-fermi 0-gaus

 Electronic relaxation 2 (details)
   IALGO  =     68    algorithm
   LDIAG  =      T    sub-space diagonalisation (order eigenvalues)
   LSUBROT=      F    optimize rotation matrix (better conditioning)
   TURBO    =      0    0=normal 1=particle mesh
   IRESTART =      0    0=no restart 2=restart with 2 vectors
   NREBOOT  =      0    no. of reboots
   NMIN     =      0    reboot dimension
   EREF     =   0.00    reference energy to select bands
   IMIX   =      4    mixing-type and parameters
     AMIX     =   0.40;   BMIX     =  1.00
     AMIX_MAG =   1.60;   BMIX_MAG =  1.00
     AMIN     =   0.10
     WC   =   100.;   INIMIX=   1;  MIXPRE=   1;  MAXMIX= -45

 Intra band minimization:
   WEIMIN = 0.0010     energy-eigenvalue tresh-hold
   EBREAK =  0.65E-10  absolut break condition
   DEPER  =   0.30     relativ break condition  

   TIME   =   0.40     timestep for ELM

  volume/ion in A,a.u.               =      11.37        76.71
  Fermi-wavevector in a.u.,A,eV,Ry     =   1.405911  2.656787 26.893085  1.976586
  Thomas-Fermi vector in A             =   2.528325
 
 Write flags
   LWAVE        =      F    write WAVECAR
   LDOWNSAMPLE  =      F    k-point downsampling of WAVECAR
   LCHARG       =      F    write CHGCAR
   LVTOT        =      F    write LOCPOT, total local potential
   LVHAR        =      F    write LOCPOT, Hartree potential only
   LELF         =      F    write electronic localiz. function (ELF)
   LORBIT       =     11    0 simple, 1 ext, 2 COOP (PROOUT), +10 PAW based schemes


 Dipole corrections
   LMONO  =      F    monopole corrections only (constant potential shift)
   LDIPOL =      F    correct potential (dipole corrections)
   IDIPOL =      0    1-x, 2-y, 3-z, 4-all directions 
   EPSILON=  1.0000000 bulk dielectric constant

 Exchange correlation treatment:
   GGA     =    --    GGA type
   LEXCH   =     8    internal setting for exchange type
   VOSKOWN=      0    Vosko Wilk Nusair interpolation
   LHFCALC =     F    Hartree Fock is set to
   LHFONE  =     F    Hartree Fock one center treatment
   AEXX    =    0.0000 exact exchange contribution

 Linear response parameters
   LEPSILON=     F    determine dielectric tensor
   LRPA    =     F    only Hartree local field effects (RPA)
   LNABLA  =     F    use nabla operator in PAW spheres
   LVEL    =     F    velocity operator in full k-point grid
   LINTERFAST=   F  fast interpolation
   KINTER  =     0    interpolate to denser k-point grid
   CSHIFT  =0.1000    complex shift for real part using Kramers Kronig
   OMEGAMAX=  -1.0    maximum frequency
   DEG_THRESHOLD= 0.2000000E-02 threshold for treating states as degnerate
   RTIME   =   -0.100 relaxation time in fs
  (WPLASMAI=    0.000 imaginary part of plasma frequency in eV, 0.658/RTIME)
   DFIELD  = 0.0000000 0.0000000 0.0000000 field for delta impulse in time
 
 Orbital magnetization related:
   ORBITALMAG=     F  switch on orbital magnetization
   LCHIMAG   =     F  perturbation theory with respect to B field
   DQ        =  0.001000  dq finite difference perturbation B field
   LLRAUG    =     F  two centre corrections for induced B field



--------------------------------------------------------------------------------------------------------


 conjugate gradient relaxation of ions
 charge density and potential will be updated during run
 spin polarized calculation
 RMM-DIIS sequential band-by-band and
  variant of blocked Davidson during initial phase
 perform sub-space diagonalisation
    before iterative eigenvector-optimisation
 modified Broyden-mixing scheme, WC =      100.0
 initial mixing is a Kerker type mixing with AMIX =  0.4000 and BMIX =      1.0000
 Hartree-type preconditioning will be used
 using additional bands           96
 real space projection scheme for non local part
 use partial core corrections
 calculate Harris-corrections to forces 
   (improved forces if not selfconsistent)
 use gradient corrections 
 use of overlap-Matrix (Vanderbilt PP)
 Gauss-broadening in eV      SIGMA  =   0.05


--------------------------------------------------------------------------------------------------------


  energy-cutoff  :      520.00
  volume of cell :      909.44
      direct lattice vectors                 reciprocal lattice vectors
     9.966795000  0.000000000 -3.523794000     0.100333156  0.057927373  0.000000000
    -4.983397000  8.631497000 -3.523794000     0.000000000  0.115854758  0.000000000
     0.000000000  0.000000000 10.571382000     0.033444385  0.057927377  0.094595011

  length of vectors
    10.571382442 10.571381663 10.571382000     0.115854749  0.115854758  0.115854754


 
 k-points in units of 2pi/SCALE and weight: pymatgen 4.7.6+ generated KPOINTS with g
   0.03344439  0.05792738  0.02364875       0.250
  -0.01672219  0.02896369  0.02364875       0.750
 
 k-points in reciprocal lattice and weights: pymatgen 4.7.6+ generated KPOINTS with g
   0.25000000  0.25000000  0.25000000       0.250
  -0.25000000  0.25000000  0.25000000       0.750
 
 position of ions in fractional coordinates (direct lattice) 
   0.25000000  0.87500000  0.62500000
   0.87500000  0.62500000  0.25000000
   0.62500000  0.87500000  0.75000000
   0.87500000  0.75000000  0.62500000
   0.62500000  0.25000000  0.87500000
   0.75000000  0.62500000  0.87500000
   0.75000000  0.12500000  0.37500000
   0.12500000  0.37500000  0.75000000
   0.37500000  0.12500000  0.25000000
   0.12500000  0.25000000  0.37500000
   0.37500000  0.75000000  0.12500000
   0.25000000  0.37500000  0.12500000
   0.50000000  0.50000000  0.50000000
   0.50000000  0.50000000  0.00000000
   0.50000000  0.00000000  0.50000000
   0.00000000  0.50000000  0.50000000
   0.50000000  0.00000000  0.00000000
   0.00000000  0.00000000  0.50000000
   0.00000000  0.50000000  0.00000000
   0.00000000  0.00000000  0.00000000
   0.25000000  0.12500000  0.87500000
   0.75000000  0.87500000  0.12500000
   0.37500000  0.25000000  0.62500000
   0.62500000  0.37500000  0.25000000
   0.12500000  0.75000000  0.87500000
   0.87500000  0.12500000  0.75000000
   0.75000000  0.37500000  0.62500000
   0.37500000  0.62500000  0.75000000
   0.12500000  0.87500000  0.25000000
   0.87500000  0.25000000  0.12500000
   0.62500000  0.75000000  0.37500000
   0.25000000  0.62500000  0.37500000
   0.70050300  0.67352700  0.07951100
   0.82647300  0.52697600  0.40598300
   0.42048900  0.09401700  0.62099200
   0.79949700  0.87900800  0.97302400
   0.79949700  0.42048900  0.82647300
   0.87900800  0.97302400  0.79949700
   0.09401700  0.97302400  0.67352700
   0.97302400  0.79949700  0.87900800
   0.40598300  0.07951100  0.87900800
   0.52697600  0.62099200  0.70050300
   0.62099200  0.70050300  0.52697600
   0.82647300  0.79949700  0.42048900
   0.97302400  0.67352700  0.09401700
   0.87900800  0.40598300  0.07951100
   0.42048900  0.82647300  0.79949700
   0.67352700  0.09401700  0.97302400
   0.07951100  0.87900800  0.40598300
   0.40598300  0.82647300  0.52697600
   0.09401700  0.62099200  0.42048900
   0.59401700  0.92048900  0.12099200
   0.62099200  0.42048900  0.09401700
   0.07951100  0.70050300  0.67352700
   0.52697600  0.40598300  0.82647300
   0.70050300  0.52697600  0.62099200
   0.29949700  0.32647300  0.92048900
   0.17352700  0.47302400  0.59401700
   0.57951100  0.90598300  0.37900800
   0.20050300  0.12099200  0.02697600
   0.20050300  0.57951100  0.17352700
   0.12099200  0.02697600  0.20050300
   0.90598300  0.02697600  0.32647300
   0.02697600  0.20050300  0.12099200
   0.29949700  0.47302400  0.37900800
   0.47302400  0.59401700  0.17352700
   0.92048900  0.29949700  0.32647300
   0.32647300  0.92048900  0.29949700
   0.37900800  0.57951100  0.90598300
   0.90598300  0.37900800  0.57951100
   0.59401700  0.17352700  0.47302400
   0.92048900  0.12099200  0.59401700
   0.32647300  0.90598300  0.02697600
   0.57951100  0.17352700  0.20050300
   0.12099200  0.59401700  0.92048900
   0.02697600  0.32647300  0.90598300
   0.17352700  0.20050300  0.57951100
   0.37900800  0.29949700  0.47302400
   0.47302400  0.37900800  0.29949700
   0.67352700  0.07951100  0.70050300
 
 position of ions in cartesian coordinates  (Angst):
  -1.86877363  7.55255988  2.64284550
   5.60632250  5.39468562 -2.64284550
   1.86877450  7.55255988  2.64284550
   4.98339787  6.47362275  0.88094850
   4.98339762  2.15787425  6.16663950
   4.36047312  5.39468562  4.40474250
   6.85217162  1.07893712  0.88094850
  -0.62292450  3.23681137  6.16663950
   3.11462350  1.07893712  0.88094850
   0.00000012  2.15787425  2.64284550
   0.00000037  6.47362275 -2.64284550
   0.62292487  3.23681137 -0.88094850
   2.49169900  4.31574850  1.76189700
   2.49169900  4.31574850 -3.52379400
   4.98339750  0.00000000  3.52379400
  -2.49169850  4.31574850  3.52379400
   4.98339750  0.00000000 -1.76189700
   0.00000000  0.00000000  5.28569100
  -2.49169850  4.31574850 -1.76189700
   0.00000000  0.00000000  0.00000000
   1.86877412  1.07893712  7.92853650
   3.11462387  7.55255988 -4.40474250
   2.49169887  2.15787425  4.40474250
   4.36047300  3.23681137 -0.88094850
  -2.49169838  6.47362275  6.16663950
   8.09802100  1.07893712  4.40474250
   5.60632237  3.23681137  2.64284550
   0.62292500  5.39468562  4.40474250
  -3.11462300  7.55255988 -0.88094850
   7.47509637  2.15787425 -2.64284550
   2.49169912  6.47362275 -0.88094850
  -0.62292438  5.39468562  0.88094850
   3.62531737  5.81354628 -4.00125752
   5.61115635  4.54859176 -0.47747409
   3.72240363  0.81150745  4.75173050
   3.58797687  7.58715491  4.37150255
   5.87295908  3.62944954  4.43798245
   3.91192766  8.39865374  1.92560895
  -3.91191672  8.39865374  3.36007853
   5.71371979  6.90085596  3.04633048
   3.65011446  0.68629896  7.58154850
   2.15761209  5.36009059  3.36008205
   2.69841541  6.04638954  0.91418845
   4.25307601  6.90085596 -1.28443348
   6.34147831  5.81354628 -4.80821691
   6.73771808  3.50424105 -3.68750242
   0.07228459  7.13369922  4.05775098
   6.24438150  0.81150745  7.58154146
  -3.58797599  7.58715491  0.91417788
  -0.07229373  7.13369922  1.22794354
  -2.15760150  5.36009059  1.92560542
   1.33328354  7.94519804 -4.05775450
   4.09383634  3.62944954 -2.67607488
  -2.69841471  6.04638954  4.37150255
   3.22908730  3.50424105  5.44940647
   4.35563918  4.54859176  2.23936052
   1.35808063  2.81795072  7.52505152
  -0.62775835  4.08290524  4.00126809
   1.26099437  7.81998955 -1.22793650
   1.39542113  1.04434209 -0.84770855
  -0.88956108  5.00204746 -0.91418845
   1.07147034  0.23284326  1.59818505
   8.89531472  0.23284326  0.16371547
  -0.73032179  1.73064104  0.47746352
   0.62775882  4.08290524  1.28443348
   1.75431070  5.12725595 -1.92561247
   7.68181271  2.58510746 -0.84770855
  -1.33327266  7.94519804 -1.22794002
   0.88956166  5.00204746  6.19986888
   7.14099950  3.27140641  1.59818858
   5.05569173  1.49779778  2.29585046
   8.57137399  1.04434209  2.60961612
  -1.26098350  7.81998955 -4.05774746
   4.91111341  1.49779778 -0.53395698
  -1.75432008  5.12725595  7.21129642
  -1.35808031  2.81795072  8.33201091
   0.73032199  1.73064104  4.80822748
   2.28498259  2.58510746  2.60960555
   2.82578591  3.27140641  0.16371195
   6.31667066  0.68629896  4.75173402
 


--------------------------------------------------------------------------------------------------------


 k-point  1 :   0.2500 0.2500 0.2500  plane waves:   24520
 k-point  2 :  -0.2500 0.2500 0.2500  plane waves:   24463

 maximum and minimum number of plane-waves per node :     24520    24463

 maximum number of plane-waves:     24520
 maximum index in each direction: 
   IXMAX=   19   IYMAX=   19   IZMAX=   19
   IXMIN=  -19   IYMIN=  -19   IZMIN=  -19

 NGX is ok and might be reduce to  78
 NGY is ok and might be reduce to  78
 NGZ is ok and might be reduce to  78

 serial   3D FFT for wavefunctions
 parallel 3D FFT for charge:
    minimum data exchange during FFTs selected (reduces bandwidth)


 total amount of memory used by VASP MPI-rank0   263035. kBytes
=======================================================================

   base      :      30000. kBytes
   nonlr-proj:     167509. kBytes
   fftplans  :       4643. kBytes
   grid      :      48614. kBytes
   one-center:       2488. kBytes
   wavefun   :       9781. kBytes
 
     INWAV:  cpu time    0.0040: real time    0.0001
 Broyden mixing: mesh for mixing (old mesh)
   NGX = 39   NGY = 39   NGZ = 39
  (NGX  =160   NGY  =160   NGZ  =160)
  gives a total of  59319 points

 initial charge density was supplied:
 charge density of overlapping atoms calculated
 number of electron     576.0000000 magnetization      48.0000000
 keeping initial charge density in first step


--------------------------------------------------------------------------------------------------------


 Maximum index for non-local projection operator         1820
 Maximum index for augmentation-charges         1388 (set IRDMAX)


--------------------------------------------------------------------------------------------------------


 First call to EWALD:  gamma=   0.183
 Maximum number of real-space cells 3x 3x 3
 Maximum number of reciprocal cells 3x 3x 3

    FEWALD:  cpu time    0.1000: real time    0.0136


--------------------------------------- Iteration      1(   1)  ---------------------------------------


    POTLOK:  cpu time    4.5640: real time    0.6520
    SETDIJ:  cpu time    0.5640: real time    0.0757
     EDDAV:  cpu time   64.0920: real time    8.4389
       DOS:  cpu time    0.0240: real time    0.0033
    --------------------------------------------
      LOOP:  cpu time   69.2480: real time    9.1702

 eigenvalue-minimisations  :  4096
 total energy-change (2. order) : 0.7443379E+04  (-0.2469637E+05)
 number of electron     576.0000000 magnetization      48.0000000
 augmentation part      576.0000000 magnetization      48.0000000

 Free energy of the ion-electron system (eV)
  ---------------------------------------------------
  alpha Z        PSCENC =      3178.74917709
  Ewald energy   TEWEN  =    -38983.88952165
  -Hartree energ DENC   =    -13672.23679711
  -exchange      EXHF   =         0.00000000
  -V(xc)+E(xc)   XCENC  =      1797.52554441
  PAW double counting   =     34472.98048539   -38037.74477539
  entropy T*S    EENTRO =        -0.00535192
  eigenvalues    EBANDS =      3655.62536247
  atomic energy  EATOM  =     55032.37442187
  Solvation  Ediel_sol  =         0.00000000
  ---------------------------------------------------
  free energy    TOTEN  =      7443.37854516 eV

  energy without entropy =     7443.38389708  energy(sigma->0) =     7443.38122112


--------------------------------------------------------------------------------------------------------




--------------------------------------- Iteration      1(   2)  ---------------------------------------


     EDDAV:  cpu time   75.4720: real time    9.8763
       DOS:  cpu time    0.0160: real time    0.0020
    --------------------------------------------
      LOOP:  cpu time   75.4840: real time    9.8783

 eigenvalue-minimisations  :  4864
 total energy-change (2. order) :-0.6829346E+04  (-0.6345480E+04)
 number of electron     576.0000000 magnetization      48.0000000
 augmentation part      576.0000000 magnetization      48.0000000

 Free energy of the ion-electron system (eV)
  ---------------------------------------------------
  alpha Z        PSCENC =      3178.74917709
  Ewald energy   TEWEN  =    -38983.88952165
  -Hartree energ DENC   =    -13672.23679711
  -exchange      EXHF   =         0.00000000
  -V(xc)+E(xc)   XCENC  =      1797.52554441
  PAW double counting   =     34472.98048539   -38037.74477539
  entropy T*S    EENTRO =        -0.00000000
  eigenvalues    EBANDS =     -3173.72582593
  atomic energy  EATOM  =     55032.37442187
  Solvation  Ediel_sol  =         0.00000000
  ---------------------------------------------------
  free energy    TOTEN  =       614.03270868 eV

  energy without entropy =      614.03270868  energy(sigma->0) =      614.03270868


--------------------------------------------------------------------------------------------------------




--------------------------------------- Iteration      1(   3)  ---------------------------------------


     EDDAV:  cpu time   83.3080: real time   10.8796
       DOS:  cpu time    0.0120: real time    0.0018
    --------------------------------------------
      LOOP:  cpu time   83.3240: real time   10.8813

 eigenvalue-minimisations  :  5312
 total energy-change (2. order) :-0.1221573E+04  (-0.1198473E+04)
 number of electron     576.0000000 magnetization      48.0000000
 augmentation part      576.0000000 magnetization      48.0000000

 Free energy of the ion-electron system (eV)
  ---------------------------------------------------
  alpha Z        PSCENC =      3178.74917709
  Ewald energy   TEWEN  =    -38983.88952165
  -Hartree energ DENC   =    -13672.23679711
  -exchange      EXHF   =         0.00000000
  -V(xc)+E(xc)   XCENC  =      1797.52554441
  PAW double counting   =     34472.98048539   -38037.74477539
  entropy T*S    EENTRO =        -0.00000000
  eigenvalues    EBANDS =     -4395.29914970
  atomic energy  EATOM  =     55032.37442187
  Solvation  Ediel_sol  =         0.00000000
  ---------------------------------------------------
  free energy    TOTEN  =      -607.54061509 eV

  energy without entropy =     -607.54061509  energy(sigma->0) =     -607.54061509


--------------------------------------------------------------------------------------------------------




--------------------------------------- Iteration      1(   4)  ---------------------------------------


     EDDAV:  cpu time   80.8600: real time   10.5721
       DOS:  cpu time    0.0160: real time    0.0020
    --------------------------------------------
      LOOP:  cpu time   80.8760: real time   10.5741

 eigenvalue-minimisations  :  5184
 total energy-change (2. order) :-0.5196634E+02  (-0.5175859E+02)
 number of electron     576.0000000 magnetization      48.0000000
 augmentation part      576.0000000 magnetization      48.0000000

 Free energy of the ion-electron system (eV)
  ---------------------------------------------------
  alpha Z        PSCENC =      3178.74917709
  Ewald energy   TEWEN  =    -38983.88952165
  -Hartree energ DENC   =    -13672.23679711
  -exchange      EXHF   =         0.00000000
  -V(xc)+E(xc)   XCENC  =      1797.52554441
  PAW double counting   =     34472.98048539   -38037.74477539
  entropy T*S    EENTRO =        -0.00000000
  eigenvalues    EBANDS =     -4447.26548537
  atomic energy  EATOM  =     55032.37442187
  Solvation  Ediel_sol  =         0.00000000
  ---------------------------------------------------
  free energy    TOTEN  =      -659.50695076 eV

  energy without entropy =     -659.50695076  energy(sigma->0) =     -659.50695076


--------------------------------------------------------------------------------------------------------




--------------------------------------- Iteration      1(   5)  ---------------------------------------


     EDDAV:  cpu time   66.9360: real time    8.7696
       DOS:  cpu time    0.0120: real time    0.0018
    CHARGE:  cpu time    5.1320: real time    0.8820
    MIXING:  cpu time    0.2840: real time    0.0362
    --------------------------------------------
      LOOP:  cpu time   72.3640: real time    9.6896

 eigenvalue-minimisations  :  4288
 total energy-change (2. order) :-0.9140324E+00  (-0.9133194E+00)
 number of electron     576.0000186 magnetization      21.3996198
 augmentation part      184.8984079 magnetization      22.0922184

 Broyden mixing:
  rms(total) = 0.59338E+01    rms(broyden)= 0.59326E+01
  rms(prec ) = 0.81155E+01
  weight for this iteration     100.00

 Free energy of the ion-electron system (eV)
  ---------------------------------------------------
  alpha Z        PSCENC =      3178.74917709
  Ewald energy   TEWEN  =    -38983.88952165
  -Hartree energ DENC   =    -13672.23679711
  -exchange      EXHF   =         0.00000000
  -V(xc)+E(xc)   XCENC  =      1797.52554441
  PAW double counting   =     34472.98048539   -38037.74477539
  entropy T*S    EENTRO =        -0.00000000
  eigenvalues    EBANDS =     -4448.17951773
  atomic energy  EATOM  =     55032.37442187
  Solvation  Ediel_sol  =         0.00000000
  ---------------------------------------------------
  free energy    TOTEN  =      -660.42098312 eV

  energy without entropy =     -660.42098312  energy(sigma->0) =     -660.42098312


--------------------------------------------------------------------------------------------------------




--------------------------------------- Iteration      1(   6)  ---------------------------------------


    POTLOK:  cpu time    3.0880: real time    0.4014
    SETDIJ:  cpu time    0.5280: real time    0.0707
    EDDIAG:  cpu time    5.8680: real time    0.7751
  RMM-DIIS:  cpu time   18.0880: real time    2.2628
    ORTHCH:  cpu time    1.8640: real time    0.2539
       DOS:  cpu time    0.0120: real time    0.0016
    CHARGE:  cpu time    4.9120: real time    0.8487
    MIXING:  cpu time    0.1880: real time    0.0238
    --------------------------------------------
      LOOP:  cpu time   34.5480: real time    4.6380

 eigenvalue-minimisations  :  4679
 total energy-change (2. order) : 0.7751715E+02  (-0.3181091E+02)
 number of electron     576.0000183 magnetization       9.8222835
 augmentation part      178.4882049 magnetization       8.9633049

 Broyden mixing:
  rms(total) = 0.16600E+01    rms(broyden)= 0.16581E+01
  rms(prec ) = 0.19656E+01
  weight for this iteration     100.00

 eigenvalues of (default mixing * dielectric matrix)
  average eigenvalue GAMMA=   0.8762
  0.8762

 Free energy of the ion-electron system (eV)
  ---------------------------------------------------
  alpha Z        PSCENC =      3178.74917709
  Ewald energy   TEWEN  =    -38983.88952165
  -Hartree energ DENC   =    -14320.26155036
  -exchange      EXHF   =         0.00000000
  -V(xc)+E(xc)   XCENC  =      1849.36282650
  PAW double counting   =     36875.56944033   -40438.75550215
  entropy T*S    EENTRO =        -0.00000000
  eigenvalues    EBANDS =     -3776.05312519
  atomic energy  EATOM  =     55032.37442187
  Solvation  Ediel_sol  =         0.00000000
  ---------------------------------------------------
  free energy    TOTEN  =      -582.90383355 eV

  energy without entropy =     -582.90383355  energy(sigma->0) =     -582.90383355


--------------------------------------------------------------------------------------------------------




--------------------------------------- Iteration      1(   7)  ---------------------------------------


    POTLOK:  cpu time    4.0880: real time    0.5246
    SETDIJ:  cpu time    1.5600: real time    0.1992
    EDDIAG:  cpu time    6.1520: real time    0.8094
  RMM-DIIS:  cpu time   13.5640: real time    1.8529
    ORTHCH:  cpu time    1.9120: real time    0.2614
       DOS:  cpu time    0.0120: real time    0.0016
    CHARGE:  cpu time    5.8080: real time    0.9939
    MIXING:  cpu time    0.0840: real time    0.0106
    --------------------------------------------
      LOOP:  cpu time   33.1800: real time    4.6535

 eigenvalue-minimisations  :  4025
 total energy-change (2. order) :-0.3750867E+01  (-0.1841282E+01)
 number of electron     576.0000183 magnetization       2.8040368
 augmentation part      177.8956886 magnetization       2.3736825

 Broyden mixing:
  rms(total) = 0.10568E+01    rms(broyden)= 0.10567E+01
  rms(prec ) = 0.12482E+01
  weight for this iteration     100.00

 eigenvalues of (default mixing * dielectric matrix)
  average eigenvalue GAMMA=   0.9396
  0.9396  0.9396

 Free energy of the ion-electron system (eV)
  ---------------------------------------------------
  alpha Z        PSCENC =      3178.74917709
  Ewald energy   TEWEN  =    -38983.88952165
  -Hartree energ DENC   =    -14341.25634193
  -exchange      EXHF   =         0.00000000
  -V(xc)+E(xc)   XCENC  =      1849.39694204
  PAW double counting   =     37858.65420363   -41457.14454243
  entropy T*S    EENTRO =        -0.00000000
  eigenvalues    EBANDS =     -3723.53903967
  atomic energy  EATOM  =     55032.37442187
  Solvation  Ediel_sol  =         0.00000000
  ---------------------------------------------------
  free energy    TOTEN  =      -586.65470104 eV

  energy without entropy =     -586.65470104  energy(sigma->0) =     -586.65470104


--------------------------------------------------------------------------------------------------------




--------------------------------------- Iteration      1(   8)  ---------------------------------------


    POTLOK:  cpu time    3.4000: real time    0.4395
    SETDIJ:  cpu time    1.2760: real time    0.1640
    EDDIAG:  cpu time    6.0680: real time    0.7982
  RMM-DIIS:  cpu time   17.3080: real time    2.1650
    ORTHCH:  cpu time    1.8120: real time    0.2471
       DOS:  cpu time    0.0120: real time    0.0017
    CHARGE:  cpu time    5.5960: real time    0.9432
    MIXING:  cpu time    0.2160: real time    0.0267
    --------------------------------------------
      LOOP:  cpu time   35.6840: real time    4.7853

 eigenvalue-minimisations  :  4639
 total energy-change (2. order) :-0.1284247E+01  (-0.1266383E+01)
 number of electron     576.0000182 magnetization      -1.1976810
 augmentation part      177.5320642 magnetization      -1.4437615

 Broyden mixing:
  rms(total) = 0.60403E+00    rms(broyden)= 0.60402E+00
  rms(prec ) = 0.69001E+00
  weight for this iteration     100.00

 eigenvalues of (default mixing * dielectric matrix)
  average eigenvalue GAMMA=   1.3211
  2.1213  1.1430  0.6989

 Free energy of the ion-electron system (eV)
  ---------------------------------------------------
  alpha Z        PSCENC =      3178.74917709
  Ewald energy   TEWEN  =    -38983.88952165
  -Hartree energ DENC   =    -14307.39830046
  -exchange      EXHF   =         0.00000000
  -V(xc)+E(xc)   XCENC  =      1847.68439132
  PAW double counting   =     38616.62855537   -42234.84596699
  entropy T*S    EENTRO =        -0.00000000
  eigenvalues    EBANDS =     -3737.24170506
  atomic energy  EATOM  =     55032.37442187
  Solvation  Ediel_sol  =         0.00000000
  ---------------------------------------------------
  free energy    TOTEN  =      -587.93894849 eV

  energy without entropy =     -587.93894849  energy(sigma->0) =     -587.93894849


--------------------------------------------------------------------------------------------------------




--------------------------------------- Iteration      1(   9)  ---------------------------------------


    POTLOK:  cpu time    3.5040: real time    0.4511
    SETDIJ:  cpu time    0.8880: real time    0.1159
    EDDIAG:  cpu time    6.3200: real time    0.8297
  RMM-DIIS:  cpu time   14.9520: real time    1.9427
    ORTHCH:  cpu time    1.8640: real time    0.2533
       DOS:  cpu time    0.0120: real time    0.0017
    CHARGE:  cpu time    5.2600: real time    0.9089
    MIXING:  cpu time    0.0720: real time    0.0092
    --------------------------------------------
      LOOP:  cpu time   32.8760: real time    4.5124

 eigenvalue-minimisations  :  4045
 total energy-change (2. order) :-0.2078686E+00  (-0.1663743E+00)
 number of electron     576.0000182 magnetization      -0.8012328
 augmentation part      177.6433651 magnetization      -0.8650281

 Broyden mixing:
  rms(total) = 0.12205E+00    rms(broyden)= 0.12201E+00
  rms(prec ) = 0.16934E+00
  weight for this iteration     100.00

 eigenvalues of (default mixing * dielectric matrix)
  average eigenvalue GAMMA=   1.2297
  2.2690  1.0599  0.9133  0.6767

 Free energy of the ion-electron system (eV)
  ---------------------------------------------------
  alpha Z        PSCENC =      3178.74917709
  Ewald energy   TEWEN  =    -38983.88952165
  -Hartree energ DENC   =    -14270.36959263
  -exchange      EXHF   =         0.00000000
  -V(xc)+E(xc)   XCENC  =      1845.47708010
  PAW double counting   =     39216.32013941   -42849.34326661
  entropy T*S    EENTRO =        -0.00000000
  eigenvalues    EBANDS =     -3757.46525468
  atomic energy  EATOM  =     55032.37442187
  Solvation  Ediel_sol  =         0.00000000
  ---------------------------------------------------
  free energy    TOTEN  =      -588.14681709 eV

  energy without entropy =     -588.14681709  energy(sigma->0) =     -588.14681709


--------------------------------------------------------------------------------------------------------




--------------------------------------- Iteration      1(  10)  ---------------------------------------


    POTLOK:  cpu time    3.5080: real time    0.4517
    SETDIJ:  cpu time    0.7400: real time    0.0979
    EDDIAG:  cpu time    6.7320: real time    0.8896
  RMM-DIIS:  cpu time   17.2480: real time    2.1571
    ORTHCH:  cpu time    1.9720: real time    0.2675
       DOS:  cpu time    0.0120: real time    0.0017
    CHARGE:  cpu time    5.3320: real time    0.9075
    MIXING:  cpu time    0.1240: real time    0.0158
    --------------------------------------------
      LOOP:  cpu time   35.6680: real time    4.7889

 eigenvalue-minimisations  :  4658
 total energy-change (2. order) :-0.4913065E-01  (-0.7938089E-01)
 number of electron     576.0000182 magnetization      -0.1203957
 augmentation part      177.5912059 magnetization      -0.1255310

 Broyden mixing:
  rms(total) = 0.70830E-01    rms(broyden)= 0.70812E-01
  rms(prec ) = 0.86882E-01
  weight for this iteration     100.00

 eigenvalues of (default mixing * dielectric matrix)
  average eigenvalue GAMMA=   1.2043
  2.2440  1.1734  1.1734  0.7921  0.6384

 Free energy of the ion-electron system (eV)
  ---------------------------------------------------
  alpha Z        PSCENC =      3178.74917709
  Ewald energy   TEWEN  =    -38983.88952165
  -Hartree energ DENC   =    -14284.83857062
  -exchange      EXHF   =         0.00000000
  -V(xc)+E(xc)   XCENC  =      1846.54202412
  PAW double counting   =     39310.76727808   -42944.03776295
  entropy T*S    EENTRO =        -0.00000000
  eigenvalues    EBANDS =     -3743.86299369
  atomic energy  EATOM  =     55032.37442187
  Solvation  Ediel_sol  =         0.00000000
  ---------------------------------------------------
  free energy    TOTEN  =      -588.19594775 eV

  energy without entropy =     -588.19594775  energy(sigma->0) =     -588.19594775


--------------------------------------------------------------------------------------------------------




--------------------------------------- Iteration      1(  11)  ---------------------------------------


    POTLOK:  cpu time    3.4680: real time    0.4464
    SETDIJ:  cpu time    0.9520: real time    0.1254
    EDDIAG:  cpu time    6.1000: real time    0.8044
  RMM-DIIS:  cpu time   15.7720: real time    2.1234
    ORTHCH:  cpu time    2.1000: real time    0.2859
       DOS:  cpu time    0.0120: real time    0.0016
    CHARGE:  cpu time    5.5040: real time    0.9468
    MIXING:  cpu time    0.0680: real time    0.0086
    --------------------------------------------
      LOOP:  cpu time   33.9760: real time    4.7424

 eigenvalue-minimisations  :  4337
 total energy-change (2. order) :-0.8573992E-02  (-0.1262088E-01)
 number of electron     576.0000182 magnetization       0.1080692
 augmentation part      177.5391341 magnetization       0.0910301

 Broyden mixing:
  rms(total) = 0.39921E-01    rms(broyden)= 0.39916E-01
  rms(prec ) = 0.54466E-01
  weight for this iteration     100.00

 eigenvalues of (default mixing * dielectric matrix)
  average eigenvalue GAMMA=   1.2715
  2.3576  1.9878  1.0344  0.8700  0.7422  0.6371

 Free energy of the ion-electron system (eV)
  ---------------------------------------------------
  alpha Z        PSCENC =      3178.74917709
  Ewald energy   TEWEN  =    -38983.88952165
  -Hartree energ DENC   =    -14295.77763668
  -exchange      EXHF   =         0.00000000
  -V(xc)+E(xc)   XCENC  =      1847.12517318
  PAW double counting   =     39328.75179570   -42962.07031963
  entropy T*S    EENTRO =        -0.00000000
  eigenvalues    EBANDS =     -3733.46761163
  atomic energy  EATOM  =     55032.37442187
  Solvation  Ediel_sol  =         0.00000000
  ---------------------------------------------------
  free energy    TOTEN  =      -588.20452174 eV

  energy without entropy =     -588.20452174  energy(sigma->0) =     -588.20452174


--------------------------------------------------------------------------------------------------------




--------------------------------------- Iteration      1(  12)  ---------------------------------------


    POTLOK:  cpu time    3.3320: real time    0.4288
    SETDIJ:  cpu time    0.7480: real time    0.0991
    EDDIAG:  cpu time    6.2400: real time    0.8196
  RMM-DIIS:  cpu time   16.8400: real time    2.1062
    ORTHCH:  cpu time    2.0480: real time    0.2795
       DOS:  cpu time    0.0160: real time    0.0017
    CHARGE:  cpu time    5.4280: real time    0.9237
    MIXING:  cpu time    0.2000: real time    0.0248
    --------------------------------------------
      LOOP:  cpu time   34.8480: real time    4.6834

 eigenvalue-minimisations  :  4509
 total energy-change (2. order) :-0.2996636E-02  (-0.4755351E-02)
 number of electron     576.0000182 magnetization       0.0332894
 augmentation part      177.5280380 magnetization       0.0246716

 Broyden mixing:
  rms(total) = 0.26335E-01    rms(broyden)= 0.26333E-01
  rms(prec ) = 0.35151E-01
  weight for this iteration     100.00

 eigenvalues of (default mixing * dielectric matrix)
  average eigenvalue GAMMA=   1.3151
  2.5810  1.9850  1.1738  1.1738  0.9335  0.7234  0.6353

 Free energy of the ion-electron system (eV)
  ---------------------------------------------------
  alpha Z        PSCENC =      3178.74917709
  Ewald energy   TEWEN  =    -38983.88952165
  -Hartree energ DENC   =    -14295.82474662
  -exchange      EXHF   =         0.00000000
  -V(xc)+E(xc)   XCENC  =      1846.99561426
  PAW double counting   =     39335.05133112   -42968.62378067
  entropy T*S    EENTRO =        -0.00000000
  eigenvalues    EBANDS =     -3733.04001379
  atomic energy  EATOM  =     55032.37442187
  Solvation  Ediel_sol  =         0.00000000
  ---------------------------------------------------
  free energy    TOTEN  =      -588.20751837 eV

  energy without entropy =     -588.20751837  energy(sigma->0) =     -588.20751837


--------------------------------------------------------------------------------------------------------




--------------------------------------- Iteration      1(  13)  ---------------------------------------


    POTLOK:  cpu time    3.2280: real time    0.4167
    SETDIJ:  cpu time    0.9840: real time    0.1278
    EDDIAG:  cpu time    6.2480: real time    0.8213
  RMM-DIIS:  cpu time   15.3840: real time    2.1850
    ORTHCH:  cpu time    1.8840: real time    0.2567
       DOS:  cpu time    0.0120: real time    0.0016
    CHARGE:  cpu time    5.4160: real time    0.9225
    MIXING:  cpu time    0.0760: real time    0.0099
    --------------------------------------------
      LOOP:  cpu time   33.2360: real time    4.7416

 eigenvalue-minimisations  :  4474
 total energy-change (2. order) :-0.2512449E-03  (-0.1461434E-02)
 number of electron     576.0000182 magnetization       0.0018510
 augmentation part      177.5561914 magnetization      -0.0016268

 Broyden mixing:
  rms(total) = 0.12837E-01    rms(broyden)= 0.12830E-01
  rms(prec ) = 0.16422E-01
  weight for this iteration     100.00

 eigenvalues of (default mixing * dielectric matrix)
  average eigenvalue GAMMA=   1.3193
  2.7456  2.0989  1.6477  1.0864  0.8165  0.8165  0.7061  0.6371

 Free energy of the ion-electron system (eV)
  ---------------------------------------------------
  alpha Z        PSCENC =      3178.74917709
  Ewald energy   TEWEN  =    -38983.88952165
  -Hartree energ DENC   =    -14292.21111794
  -exchange      EXHF   =         0.00000000
  -V(xc)+E(xc)   XCENC  =      1846.68341360
  PAW double counting   =     39337.89521745   -42971.55404663
  entropy T*S    EENTRO =        -0.00000000
  eigenvalues    EBANDS =     -3736.25531341
  atomic energy  EATOM  =     55032.37442187
  Solvation  Ediel_sol  =         0.00000000
  ---------------------------------------------------
  free energy    TOTEN  =      -588.20776962 eV

  energy without entropy =     -588.20776962  energy(sigma->0) =     -588.20776962


--------------------------------------------------------------------------------------------------------




--------------------------------------- Iteration      1(  14)  ---------------------------------------


    POTLOK:  cpu time    3.3360: real time    0.4296
    SETDIJ:  cpu time    0.7680: real time    0.1012
    EDDIAG:  cpu time    6.4760: real time    0.8532
  RMM-DIIS:  cpu time   16.6600: real time    2.0835
    ORTHCH:  cpu time    1.9000: real time    0.2614
       DOS:  cpu time    0.0120: real time    0.0016
    CHARGE:  cpu time    5.3360: real time    0.9213
    MIXING:  cpu time    0.1120: real time    0.0139
    --------------------------------------------
      LOOP:  cpu time   34.5960: real time    4.6657

 eigenvalue-minimisations  :  4565
 total energy-change (2. order) :-0.8210937E-04  (-0.2956974E-03)
 number of electron     576.0000182 magnetization      -0.0087238
 augmentation part      177.5560553 magnetization      -0.0104922

 Broyden mixing:
  rms(total) = 0.89668E-02    rms(broyden)= 0.89662E-02
  rms(prec ) = 0.11604E-01
  weight for this iteration     100.00

 eigenvalues of (default mixing * dielectric matrix)
  average eigenvalue GAMMA=   1.3500
  2.6327  2.6327  1.8032  1.0249  1.0249  0.9680  0.7518  0.6897  0.6220

 Free energy of the ion-electron system (eV)
  ---------------------------------------------------
  alpha Z        PSCENC =      3178.74917709
  Ewald energy   TEWEN  =    -38983.88952165
  -Hartree energ DENC   =    -14293.48010794
  -exchange      EXHF   =         0.00000000
  -V(xc)+E(xc)   XCENC  =      1846.75763742
  PAW double counting   =     39336.07155038   -42969.58929699
  entropy T*S    EENTRO =        -0.00000000
  eigenvalues    EBANDS =     -3735.20171193
  atomic energy  EATOM  =     55032.37442187
  Solvation  Ediel_sol  =         0.00000000
  ---------------------------------------------------
  free energy    TOTEN  =      -588.20785173 eV

  energy without entropy =     -588.20785173  energy(sigma->0) =     -588.20785173


--------------------------------------------------------------------------------------------------------




--------------------------------------- Iteration      1(  15)  ---------------------------------------


    POTLOK:  cpu time    3.4600: real time    0.4455
    SETDIJ:  cpu time    0.8480: real time    0.1107
    EDDIAG:  cpu time    6.2600: real time    0.8234
  RMM-DIIS:  cpu time   16.9760: real time    2.1238
    ORTHCH:  cpu time    1.9600: real time    0.2681
       DOS:  cpu time    0.0160: real time    0.0016
    CHARGE:  cpu time    5.4120: real time    0.9313
    MIXING:  cpu time    0.1160: real time    0.0144
    --------------------------------------------
      LOOP:  cpu time   35.0520: real time    4.7189

 eigenvalue-minimisations  :  4495
 total energy-change (2. order) : 0.1427941E-04  (-0.1973142E-03)
 number of electron     576.0000182 magnetization      -0.0034687
 augmentation part      177.5451299 magnetization      -0.0043232

 Broyden mixing:
  rms(total) = 0.22400E-02    rms(broyden)= 0.22357E-02
  rms(prec ) = 0.28282E-02
  weight for this iteration     100.00

 eigenvalues of (default mixing * dielectric matrix)
  average eigenvalue GAMMA=   1.3281
  2.7122  2.7122  1.8421  1.0626  1.0626  1.0268  0.8122  0.7452  0.6266  0.6782

 Free energy of the ion-electron system (eV)
  ---------------------------------------------------
  alpha Z        PSCENC =      3178.74917709
  Ewald energy   TEWEN  =    -38983.88952165
  -Hartree energ DENC   =    -14295.05882549
  -exchange      EXHF   =         0.00000000
  -V(xc)+E(xc)   XCENC  =      1846.85943643
  PAW double counting   =     39334.88256632   -42968.30659007
  entropy T*S    EENTRO =        -0.00000000
  eigenvalues    EBANDS =     -3733.81850196
  atomic energy  EATOM  =     55032.37442187
  Solvation  Ediel_sol  =         0.00000000
  ---------------------------------------------------
  free energy    TOTEN  =      -588.20783745 eV

  energy without entropy =     -588.20783745  energy(sigma->0) =     -588.20783745


--------------------------------------------------------------------------------------------------------




--------------------------------------- Iteration      1(  16)  ---------------------------------------


    POTLOK:  cpu time    3.4040: real time    0.4384
    SETDIJ:  cpu time    0.8320: real time    0.1085
    EDDIAG:  cpu time    6.2640: real time    0.8233
  RMM-DIIS:  cpu time   16.0840: real time    2.0118
    ORTHCH:  cpu time    1.9200: real time    0.2629
       DOS:  cpu time    0.0120: real time    0.0017
    CHARGE:  cpu time    5.4480: real time    0.9302
    MIXING:  cpu time    0.0920: real time    0.0129
    --------------------------------------------
      LOOP:  cpu time   34.0560: real time    4.5895

 eigenvalue-minimisations  :  4513
 total energy-change (2. order) :-0.2242654E-04  (-0.3247949E-04)
 number of electron     576.0000182 magnetization      -0.0001144
 augmentation part      177.5439434 magnetization      -0.0006183

 Broyden mixing:
  rms(total) = 0.16203E-02    rms(broyden)= 0.16198E-02
  rms(prec ) = 0.20729E-02
  weight for this iteration     100.00

 eigenvalues of (default mixing * dielectric matrix)
[...]
  134          apply_precond                         0.838673                      18876   4
  135          w1_gemv                               1.235881                      16406   4
  136            overl1                                0.289693                     8203   5
  137          zhegv                                 0.378326                       3174   4
  138          fftwav_mpi                           18.073739                       5645   4
  139            fftwav                               18.037891                     5645   5
  140              fft3d                                13.717712                   5645   6
  141        w1_projall                           48.365259                         1988   3
  142          rpromu                               48.315912                       1988   4
  143            crrexp_mul_wave                      19.579352                   636160   5
  144        i3                                   12.047072                         1988   3
  145          w1_dot                                0.122427                       2472   4
  146          w1_daxpy                              3.212554                       4944   4
  147          eccp                                  4.267522                       8117   4
  148          cnorma                                0.614436                       8117   4
  149            eccp_nl                               0.306955                     8117   5
  150          w1_dscal                              2.081449                       5645   4
  151          w1_copy                               1.439432                       3173   4
  152      force_and_stress                     87.474962                             14   2
  153        set_charge                           13.882712                           14   3
  154          soft_charge                           3.213238                         14   4
  155            fftwav_mpi                            0.831508                      280   5
  156              fftwav                                0.829592                    280   6
  157                fft3d                                 0.702201                  280   7
  158            pw_charge                             0.133833                      280   5
  159            fft3d_mpi                             0.735061                       28   5
  160              fftbas_plan_mpi                       0.181247                     28   6
  161                dfftw_execute                         0.019943                   84   7
  162                map_backward                          0.155850                   56   7
  163                  map_gather                            0.014427                 56   8
  164                  m_alltoallv_z                         0.138416                 56   8
  165                  map_scatter                           0.001790                 56   8
  166          depsum                                0.147881                         14   4
  167          fft3d_mpi                             0.474485                         28   4
  168            fftbas_plan_mpi                       0.466932                       28   5
  169              dfftw_execute                         0.008356                     84   6
  170              map_backward                          0.429684                     56   6
  171                map_gather                            0.002171                   28   7
  172                m_alltoallv_z                         0.422600                   28   7
  173                map_scatter                           0.004063                   28   7
  174        forloc                                0.290316                           14   3
  175        fornlr                               14.501797                           14   3
  176          rspher_all                            2.952259                         42   4
  177          phaser                                1.517900                         84   4
  178          rpro_isp                              9.495502                         84   4
  179            fftwav_mpi                            3.004350                     1008   5
  180              fftwav                                2.997621                   1008   6
  181                fft3d                                 2.471915                 1008   7
  182            rpromu                                6.475547                      336   5
  183              crrexp_mul_wave                       2.422810                  80640   6
  184        fordep                                2.656935                           14   3
  185          setdij_                               2.649841                         84   4
  186        setdij_                               8.158439                          280   3
  187        set_dd_paw                            0.462383                           14   3
  188          set_rsgf_all                          0.000037                         14   4
  189        strkin                                0.059745                           14   3
  190        strelo                                0.127723                           14   3
  191        strnlr                               41.304090                           14   3
  192          rspher_all                            7.257789                        126   4
  193          phaser                                4.559338                        252   4
  194          rpro_isp                             29.096317                        252   4
  195            fftwav_mpi                            9.134497                     3024   5
  196              fftwav                                9.114634                   3024   6
  197                fft3d                                 7.474927                 3024   7
  198            rpromu                               19.840601                     1008   5
  199              crrexp_mul_wave                       7.309879                 241920   6
  200        fft3d_mpi                             1.474431                          308   3
  201          fftbas_plan_mpi                       1.381077                        308   4
  202            dfftw_execute                         0.097576                      924   5
  203            map_forward                           0.583215                      280   5
  204              map_gather                            0.011226                    140   6
  205              m_alltoallv_z                         0.544964                    140   6
  206              map_scatter                           0.022923                    140   6
  207            map_backward                          0.619012                      336   5
  208              map_gather                            0.016079                    168   6
  209              m_alltoallv_z                         0.574692                    168   6
  210              map_scatter                           0.023543                    168   6
  211        forhar                                0.381971                           28   3
  212        strehar                               0.108311                           14   3
  213        chggra                                0.235729                           14   3
  214          fft3d_mpi                             0.179698                         42   4
  215            fftbas_plan_mpi                       0.167020                       42   5
  216              dfftw_execute                         0.013221                    126   6
  217              map_forward                           0.103975                     56   6
  218                map_gather                            0.001911                   28   7
  219                m_alltoallv_z                         0.096745                   28   7
  220                map_scatter                           0.004519                   28   7
  221              map_backward                          0.039003                     28   6
  222                map_gather                            0.001406                   14   7
  223                m_alltoallv_z                         0.035294                   14   7
  224                map_scatter                           0.001911                   14   7
  225        brmix                                 0.128599                           14   3
  226          brpre                                 0.001510                         28   4
  227          setg0                                 0.045104                         14   4
  228          broyd                                 0.037785                         14   4
  229            brget                                 0.004762                      641   5
  230            brsav                                 0.001302                      176   5
 
 Flat profile
 ============
 
             routine name                   CPU           calls
 ---------------------------------------------------------------
 eddav                                 109.058239          18
 total_time                             81.586529           1
 set_charge                             76.523656         117
 fft3d                                  74.897698       30401
 rpromu                                 46.670474        3444
 redis_pw                               36.464924        7302
 eddrmm                                 35.030423         103
 crrexp_mul_wave                        33.739444     1095520
 pdssyex_zheevx                         31.494735         484
 m_alltoallv_z                          18.946143        4734
 setdij_                                18.636735         496
 eddiag                                 17.393424         103
 fftwav                                 16.671977       20477
 phaser                                 15.581650         848
 redis_proj                             15.215018        9144
 soft_charge                            14.012952         117
 crrexp_mul_work_add                    13.463691      596160
 rspher_all                             10.943776         183
 orthch                                  9.548935         117
 racc0                                   9.374306        1806
 fft3d_mpi                               9.106620       14162
 orth1                                   8.866813        6298
 vhamil                                  8.033488        9924
 rpro1                                   7.230104        1374
 w1_gaxpy                                6.057015       16402
 eccp                                    5.835102       11021
 lincom                                  5.659205         952
 set_dd_paw                              5.173286         145
 gemm                                    4.638107      159040
 choleski                                4.244152         468
 force_and_stress                        3.701781          14
 w1_dscal                                3.459009       15166
 w1_daxpy                                3.385290       11292
 racc0mu                                 2.537099        1988
 w1_copy                                 2.364836       22355
 dfftw_execute                           1.598064       12714
 depsum                                  1.264477         117
 fftbas_plan_mpi                         1.257030        4238
 pw_charge                               1.186889        2340
 fftext_mpi                              1.104311        9924
 i2                                      1.094679        1988
 w1_gemv                                 0.946189       16406
 apply_precond                           0.903548       20250
 map_scatter                             0.702646        4734
 brmix                                   0.679817         117
 overl                                   0.593189        4060
 overl1                                  0.571169       15655
 fornlr                                  0.536136          14
 brgrid                                  0.536056           1
 kinhamil                                0.490406        9924
 map_gather                              0.463234        4734
 setg0                                   0.395455         145
 strnlr                                  0.390646          14
 forhar                                  0.381971          28
 zhegv                                   0.378326        3174
 hamiltmu                                0.323094        3794
 i3                                      0.309253        1988
 cnorma                                  0.307481        8117
 eccp_nl                                 0.306955        8117
 forloc                                  0.290316          14
 broyd                                   0.235453         117
 setup_precond                           0.160771        2904
 rpro_isp                                0.156553         364
 i0                                      0.144319        2400
 fftwav_mpi                              0.133072       20477
 strelo                                  0.127723          14
 w1_dot                                  0.122427        2472
 strehar                                 0.108311          14
 raccmu_                                 0.069565        3794
 map_backward                            0.065977        4444
 w1_projall                              0.061476        3362
 map_forward                             0.060756        4032
 strkin                                  0.059745          14
 i1                                      0.058543        1988
 chggra                                  0.056031          14
 hamilt_local                            0.037800        2472
 brget                                   0.026010        3564
 truncate_high_frequency_w1              0.015892       10356
 brpre                                   0.013023         234
 brsav                                   0.008463        1118
 fordep                                  0.007094          14
 set_rsgf_all                            0.000381         145
 redis_pw_over_bands                     0.000025          14
 ---------------------------------------------------------------
  summed up times    784.287381172180     
 
 Accumulative profile
 ====================
 
             routine name                   CPU           calls
 ---------------------------------------------------------------
 total_time                            784.287381           1
 eddav                                 183.550183          18
 eddrmm                                181.225926         103
 set_charge                            111.230206         117
 force_and_stress                       87.474962          14
 eddiag                                 83.222619         103
 rpromu                                 76.796336        3444
 fft3d                                  74.897698       30401
 fftwav_mpi                             67.312027       20477
 fftwav                                 67.178956       20477
 w1_projall                             59.221073        3362
 fft3d_mpi                              56.591191       14162
 hamiltmu                               56.089897        3794
 rpro_isp                               41.943521         364
 strnlr                                 41.304090          14
 redis_pw                               36.464924        7302
 crrexp_mul_wave                        33.739444     1095520
 orthch                                 31.731952         117
 pdssyex_zheevx                         31.494735         484
 raccmu_                                30.364244        3794
 i2                                     29.542147        1988
 soft_charge                            28.056547         117
 kinhamil                               26.078691        9924
 fftext_mpi                             25.588285        9924
 fftbas_plan_mpi                        23.093851        4238
 m_alltoallv_z                          18.946143        4734
 setdij_                                18.636735         496
 racc0mu                                16.467774        1988
 phaser                                 15.581650         848
 redis_proj                             15.215018        9144
 fornlr                                 14.501797          14
 map_backward                           13.641267        4444
 racc0                                  13.545428        1806
 crrexp_mul_work_add                    13.463691      596160
 i0                                     12.791758        2400
 i3                                     12.047072        1988
 rspher_all                             10.943776         183
 rpro1                                  10.843686        1374
 orth1                                   8.866813        6298
 hamilt_local                            8.747420        2472
 vhamil                                  8.033488        9924
 map_forward                             6.597490        4032
 w1_gaxpy                                6.057015       16402
 eccp                                    5.835102       11021
 lincom                                  5.659205         952
 set_dd_paw                              5.173667         145
 gemm                                    4.638107      159040
 choleski                                4.244152         468
 w1_dscal                                3.459009       15166
 w1_daxpy                                3.385290       11292
 fordep                                  2.656935          14
 w1_copy                                 2.364836       22355
 dfftw_execute                           1.598064       12714
 brmix                                   1.358221         117
 depsum                                  1.264477         117
 w1_gemv                                 1.235881       16406
 pw_charge                               1.186889        2340
 apply_precond                           0.903548       20250
 map_scatter                             0.702646        4734
 cnorma                                  0.614436        8117
 overl                                   0.593189        4060
 overl1                                  0.571169       15655
 brgrid                                  0.536056           1
 map_gather                              0.463234        4734
 setg0                                   0.395455         145
 forhar                                  0.381971          28
 zhegv                                   0.378326        3174
 eccp_nl                                 0.306955        8117
 i1                                      0.301933        1988
 forloc                                  0.290316          14
 broyd                                   0.269925         117
 chggra                                  0.235729          14
 setup_precond                           0.160771        2904
 strelo                                  0.127723          14
 w1_dot                                  0.122427        2472
 strehar                                 0.108311          14
 strkin                                  0.059745          14
 brget                                   0.026010        3564
 truncate_high_frequency_w1              0.015892       10356
 brpre                                   0.013023         234
 brsav                                   0.008463        1118
 set_rsgf_all                            0.000381         145
 redis_pw_over_bands                     0.000025          14
 ---------------------------------------------------------------
 
Profiling took   3.000638  2.543693  0.004948  0.004308 seconds
Profiling took   3.143920 seconds
