unknown system                          
           1
     9.978257    0.000000   -3.527847
    -4.989128    8.641424   -3.527847
    -0.000000   -0.000000   10.583540
   Er   Al   Ga   O 
  12   8  12  48
Direct configuration=     1
   0.25000000  0.87500000  0.62500000
   0.87500000  0.62500000  0.25000000
   0.62500000  0.87500000  0.75000000
   0.87500000  0.75000000  0.62500000
   0.62500000  0.25000000  0.87500000
   0.75000000  0.62500000  0.87500000
   0.75000000  0.12500000  0.37500000
   0.12500000  0.37500000  0.75000000
   0.37500000  0.12500000  0.25000000
   0.12500000  0.25000000  0.37500000
   0.37500000  0.75000000  0.12500000
   0.25000000  0.37500000  0.12500000
   0.50000000  0.50000000  0.50000000
   0.50000000  0.50000000  0.00000000
   0.50000000  0.00000000  0.50000000
   0.00000000  0.50000000  0.50000000
   0.50000000  0.00000000  0.00000000
   0.00000000  0.00000000  0.50000000
   0.00000000  0.50000000  0.00000000
   0.00000000  0.00000000  0.00000000
   0.25000000  0.12500000  0.87500000
   0.75000000  0.87500000  0.12500000
   0.37500000  0.25000000  0.62500000
   0.62500000  0.37500000  0.25000000
   0.12500000  0.75000000  0.87500000
   0.87500000  0.12500000  0.75000000
   0.75000000  0.37500000  0.62500000
   0.37500000  0.62500000  0.75000000
   0.12500000  0.87500000  0.25000000
   0.87500000  0.25000000  0.12500000
   0.62500000  0.75000000  0.37500000
   0.25000000  0.62500000  0.37500000
   0.70050300  0.67352700  0.07951100
   0.82647300  0.52697600  0.40598300
   0.42048900  0.09401700  0.62099200
   0.79949700  0.87900800  0.97302400
   0.79949700  0.42048900  0.82647300
   0.87900800  0.97302400  0.79949700
   0.09401700  0.97302400  0.67352700
   0.97302400  0.79949700  0.87900800
   0.40598300  0.07951100  0.87900800
   0.52697600  0.62099200  0.70050300
   0.62099200  0.70050300  0.52697600
   0.82647300  0.79949700  0.42048900
   0.97302400  0.67352700  0.09401700
   0.87900800  0.40598300  0.07951100
   0.42048900  0.82647300  0.79949700
   0.67352700  0.09401700  0.97302400
   0.07951100  0.87900800  0.40598300
   0.40598300  0.82647300  0.52697600
   0.09401700  0.62099200  0.42048900
   0.59401700  0.92048900  0.12099200
   0.62099200  0.42048900  0.09401700
   0.07951100  0.70050300  0.67352700
   0.52697600  0.40598300  0.82647300
   0.70050300  0.52697600  0.62099200
   0.29949700  0.32647300  0.92048900
   0.17352700  0.47302400  0.59401700
   0.57951100  0.90598300  0.37900800
   0.20050300  0.12099200  0.02697600
   0.20050300  0.57951100  0.17352700
   0.12099200  0.02697600  0.20050300
   0.90598300  0.02697600  0.32647300
   0.02697600  0.20050300  0.12099200
   0.29949700  0.47302400  0.37900800
   0.47302400  0.59401700  0.17352700
   0.92048900  0.29949700  0.32647300
   0.32647300  0.92048900  0.29949700
   0.37900800  0.57951100  0.90598300
   0.90598300  0.37900800  0.57951100
   0.59401700  0.17352700  0.47302400
   0.92048900  0.12099200  0.59401700
   0.32647300  0.90598300  0.02697600
   0.57951100  0.17352700  0.20050300
   0.12099200  0.59401700  0.92048900
   0.02697600  0.32647300  0.90598300
   0.17352700  0.20050300  0.57951100
   0.37900800  0.29949700  0.47302400
   0.47302400  0.37900800  0.29949700
   0.67352700  0.07951100  0.70050300
unknown system                          
           1
     9.973537    0.000000   -3.526178
    -4.986768    8.637336   -3.526178
    -0.000000   -0.000000   10.578533
   Er   Al   Ga   O 
  12   8  12  48
Direct configuration=     2
   0.25000000  0.87500000  0.62500000
   0.87500000  0.62500000  0.25000000
   0.62500000  0.87500000  0.75000000
   0.87500000  0.75000000  0.62500000
   0.62500000  0.25000000  0.87500000
   0.75000000  0.62500000  0.87500000
   0.75000000  0.12500000  0.37500000
   0.12500000  0.37500000  0.75000000
   0.37500000  0.12500000  0.25000000
   0.12500000  0.25000000  0.37500000
   0.37500000  0.75000000  0.12500000
   0.25000000  0.37500000  0.12500000
   0.50000000  0.50000000  0.50000000
   0.50000000  0.50000000 -0.00000000
   0.50000000 -0.00000000  0.50000000
   0.00000000  0.50000000  0.50000000
   0.50000000 -0.00000000 -0.00000000
   0.00000000 -0.00000000  0.50000000
   0.00000000  0.50000000 -0.00000000
   0.00000000 -0.00000000 -0.00000000
   0.25000000  0.12500000  0.87500000
   0.75000000  0.87500000  0.12500000
   0.37500000  0.25000000  0.62500000
   0.62500000  0.37500000  0.25000000
   0.12500000  0.75000000  0.87500000
   0.87500000  0.12500000  0.75000000
   0.75000000  0.37500000  0.62500000
   0.37500000  0.62500000  0.75000000
   0.12500000  0.87500000  0.25000000
   0.87500000  0.25000000  0.12500000
   0.62500000  0.75000000  0.37500000
   0.25000000  0.62500000  0.37500000
   0.70045259  0.67334708  0.07962736
   0.82665292  0.52710552  0.40627928
   0.42037264  0.09372072  0.62082523
   0.79954741  0.87917477  0.97289448
   0.79954741  0.42037264  0.82665292
   0.87917477  0.97289448  0.79954741
   0.09372072  0.97289448  0.67334708
   0.97289448  0.79954741  0.87917477
   0.40627928  0.07962736  0.87917477
   0.52710552  0.62082523  0.70045259
   0.62082523  0.70045259  0.52710552
   0.82665292  0.79954741  0.42037264
   0.97289448  0.67334708  0.09372072
   0.87917477  0.40627928  0.07962736
   0.42037264  0.82665292  0.79954741
   0.67334708  0.09372072  0.97289448
   0.07962736  0.87917477  0.40627928
   0.40627928  0.82665292  0.52710552
   0.09372072  0.62082523  0.42037264
   0.59372072  0.92037264  0.12082523
   0.62082523  0.42037264  0.09372072
   0.07962736  0.70045259  0.67334708
   0.52710552  0.40627928  0.82665292
   0.70045259  0.52710552  0.62082523
   0.29954741  0.32665292  0.92037264
   0.17334708  0.47289448  0.59372072
   0.57962736  0.90627928  0.37917477
   0.20045259  0.12082523  0.02710552
   0.20045259  0.57962736  0.17334708
   0.12082523  0.02710552  0.20045259
   0.90627928  0.02710552  0.32665292
   0.02710552  0.20045259  0.12082523
   0.29954741  0.47289448  0.37917477
   0.47289448  0.59372072  0.17334708
   0.92037264  0.29954741  0.32665292
   0.32665292  0.92037264  0.29954741
   0.37917477  0.57962736  0.90627928
   0.90627928  0.37917477  0.57962736
   0.59372072  0.17334708  0.47289448
   0.92037264  0.12082523  0.59372072
   0.32665292  0.90627928  0.02710552
   0.57962736  0.17334708  0.20045259
   0.12082523  0.59372072  0.92037264
   0.02710552  0.32665292  0.90627928
   0.17334708  0.20045259  0.57962736
   0.37917477  0.29954741  0.47289448
   0.47289448  0.37917477  0.29954741
   0.67334708  0.07962736  0.70045259
unknown system                          
           1
     9.973346    0.000000   -3.526110
    -4.986672    8.637170   -3.526110
    -0.000000   -0.000000   10.578330
   Er   Al   Ga   O 
  12   8  12  48
Direct configuration=     3
   0.25000000  0.87500000  0.62500000
   0.87500000  0.62500000  0.25000000
   0.62500000  0.87500000  0.75000000
   0.87500000  0.75000000  0.62500000
   0.62500000  0.25000000  0.87500000
   0.75000000  0.62500000  0.87500000
   0.75000000  0.12500000  0.37500000
   0.12500000  0.37500000  0.75000000
   0.37500000  0.12500000  0.25000000
   0.12500000  0.25000000  0.37500000
   0.37500000  0.75000000  0.12500000
   0.25000000  0.37500000  0.12500000
   0.50000000  0.50000000  0.50000000
   0.50000000  0.50000000 -0.00000000
   0.50000000 -0.00000000  0.50000000
   0.00000000  0.50000000  0.50000000
   0.50000000 -0.00000000 -0.00000000
   0.00000000 -0.00000000  0.50000000
   0.00000000  0.50000000 -0.00000000
   0.00000000 -0.00000000 -0.00000000
   0.25000000  0.12500000  0.87500000
   0.75000000  0.87500000  0.12500000
   0.37500000  0.25000000  0.62500000
   0.62500000  0.37500000  0.25000000
   0.12500000  0.75000000  0.87500000
   0.87500000  0.12500000  0.75000000
   0.75000000  0.37500000  0.62500000
   0.37500000  0.62500000  0.75000000
   0.12500000  0.87500000  0.25000000
   0.87500000  0.25000000  0.12500000
   0.62500000  0.75000000  0.37500000
   0.25000000  0.62500000  0.37500000
   0.70047333  0.67342109  0.07957950
   0.82657891  0.52705224  0.40615741
   0.42042050  0.09384259  0.62089383
   0.79952667  0.87910617  0.97294776
   0.79952667  0.42042050  0.82657891
   0.87910617  0.97294776  0.79952667
   0.09384259  0.97294776  0.67342109
   0.97294776  0.79952667  0.87910617
   0.40615741  0.07957950  0.87910617
   0.52705224  0.62089383  0.70047333
   0.62089383  0.70047333  0.52705224
   0.82657891  0.79952667  0.42042050
   0.97294776  0.67342109  0.09384259
   0.87910617  0.40615741  0.07957950
   0.42042050  0.82657891  0.79952667
   0.67342109  0.09384259  0.97294776
   0.07957950  0.87910617  0.40615741
   0.40615741  0.82657891  0.52705224
   0.09384259  0.62089383  0.42042050
   0.59384259  0.92042050  0.12089383
   0.62089383  0.42042050  0.09384259
   0.07957950  0.70047333  0.67342109
   0.52705224  0.40615741  0.82657891
   0.70047333  0.52705224  0.62089383
   0.29952667  0.32657891  0.92042050
   0.17342109  0.47294776  0.59384259
   0.57957950  0.90615741  0.37910617
   0.20047333  0.12089383  0.02705224
   0.20047333  0.57957950  0.17342109
   0.12089383  0.02705224  0.20047333
   0.90615741  0.02705224  0.32657891
   0.02705224  0.20047333  0.12089383
   0.29952667  0.47294776  0.37910617
   0.47294776  0.59384259  0.17342109
   0.92042050  0.29952667  0.32657891
   0.32657891  0.92042050  0.29952667
   0.37910617  0.57957950  0.90615741
   0.90615741  0.37910617  0.57957950
   0.59384259  0.17342109  0.47294776
   0.92042050  0.12089383  0.59384259
   0.32657891  0.90615741  0.02705224
   0.57957950  0.17342109  0.20047333
   0.12089383  0.59384259  0.92042050
   0.02705224  0.32657891  0.90615741
   0.17342109  0.20047333  0.57957950
   0.37910617  0.29952667  0.47294776
   0.47294776  0.37910617  0.29952667
   0.67342109  0.07957950  0.70047333
unknown system                          
           1
     9.971939    0.000000   -3.525613
    -4.985969    8.635952   -3.525613
    -0.000000    0.000000   10.576838
   Er   Al   Ga   O 
  12   8  12  48
Direct configuration=     4
   0.25000000  0.87500000  0.62500000
   0.87500000  0.62500000  0.25000000
   0.62500000  0.87500000  0.75000000
   0.87500000  0.75000000  0.62500000
   0.62500000  0.25000000  0.87500000
   0.75000000  0.62500000  0.87500000
   0.75000000  0.12500000  0.37500000
   0.12500000  0.37500000  0.75000000
   0.37500000  0.12500000  0.25000000
   0.12500000  0.25000000  0.37500000
   0.37500000  0.75000000  0.12500000
   0.25000000  0.37500000  0.12500000
   0.50000000  0.50000000  0.50000000
   0.50000000  0.50000000 -0.00000000
   0.50000000 -0.00000000  0.50000000
   0.00000000  0.50000000  0.50000000
   0.50000000 -0.00000000 -0.00000000
   0.00000000 -0.00000000  0.50000000
   0.00000000  0.50000000 -0.00000000
   0.00000000 -0.00000000 -0.00000000
   0.25000000  0.12500000  0.87500000
   0.75000000  0.87500000  0.12500000
   0.37500000  0.25000000  0.62500000
   0.62500000  0.37500000  0.25000000
   0.12500000  0.75000000  0.87500000
   0.87500000  0.12500000  0.75000000
   0.75000000  0.37500000  0.62500000
   0.37500000  0.62500000  0.75000000
   0.12500000  0.87500000  0.25000000
   0.87500000  0.25000000  0.12500000
   0.62500000  0.75000000  0.37500000
   0.25000000  0.62500000  0.37500000
   0.70047417  0.67342409  0.07957756
   0.82657591  0.52705008  0.40615247
   0.42042244  0.09384753  0.62089661
   0.79952583  0.87910339  0.97294992
   0.79952583  0.42042244  0.82657591
   0.87910339  0.97294992  0.79952583
   0.09384753  0.97294992  0.67342409
   0.97294992  0.79952583  0.87910339
   0.40615247  0.07957756  0.87910339
   0.52705008  0.62089661  0.70047417
   0.62089661  0.70047417  0.52705008
   0.82657591  0.79952583  0.42042244
   0.97294992  0.67342409  0.09384753
   0.87910339  0.40615247  0.07957756
   0.42042244  0.82657591  0.79952583
   0.67342409  0.09384753  0.97294992
   0.07957756  0.87910339  0.40615247
   0.40615247  0.82657591  0.52705008
   0.09384753  0.62089661  0.42042244
   0.59384753  0.92042244  0.12089661
   0.62089661  0.42042244  0.09384753
   0.07957756  0.70047417  0.67342409
   0.52705008  0.40615247  0.82657591
   0.70047417  0.52705008  0.62089661
   0.29952583  0.32657591  0.92042244
   0.17342409  0.47294992  0.59384753
   0.57957756  0.90615247  0.37910339
   0.20047417  0.12089661  0.02705008
   0.20047417  0.57957756  0.17342409
   0.12089661  0.02705008  0.20047417
   0.90615247  0.02705008  0.32657591
   0.02705008  0.20047417  0.12089661
   0.29952583  0.47294992  0.37910339
   0.47294992  0.59384753  0.17342409
   0.92042244  0.29952583  0.32657591
   0.32657591  0.92042244  0.29952583
   0.37910339  0.57957756  0.90615247
   0.90615247  0.37910339  0.57957756
   0.59384753  0.17342409  0.47294992
   0.92042244  0.12089661  0.59384753
   0.32657591  0.90615247  0.02705008
   0.57957756  0.17342409  0.20047417
   0.12089661  0.59384753  0.92042244
   0.02705008  0.32657591  0.90615247
   0.17342409  0.20047417  0.57957756
   0.37910339  0.29952583  0.47294992
   0.47294992  0.37910339  0.29952583
   0.67342409  0.07957756  0.70047417
unknown system                          
           1
     9.969409    0.000000   -3.524718
    -4.984704    8.633761   -3.524718
     0.000000    0.000000   10.574154
   Er   Al   Ga   O 
  12   8  12  48
Direct configuration=     5
   0.25000000  0.87500000  0.62500000
   0.87500000  0.62500000  0.25000000
   0.62500000  0.87500000  0.75000000
   0.87500000  0.75000000  0.62500000
   0.62500000  0.25000000  0.87500000
   0.75000000  0.62500000  0.87500000
   0.75000000  0.12500000  0.37500000
   0.12500000  0.37500000  0.75000000
   0.37500000  0.12500000  0.25000000
   0.12500000  0.25000000  0.37500000
   0.37500000  0.75000000  0.12500000
   0.25000000  0.37500000  0.12500000
   0.50000000  0.50000000  0.50000000
   0.50000000  0.50000000  0.00000000
   0.50000000 -0.00000000  0.50000000
   0.00000000  0.50000000  0.50000000
   0.50000000 -0.00000000  0.00000000
   0.00000000 -0.00000000  0.50000000
   0.00000000  0.50000000  0.00000000
   0.00000000 -0.00000000  0.00000000
   0.25000000  0.12500000  0.87500000
   0.75000000  0.87500000  0.12500000
   0.37500000  0.25000000  0.62500000
   0.62500000  0.37500000  0.25000000
   0.12500000  0.75000000  0.87500000
   0.87500000  0.12500000  0.75000000
   0.75000000  0.37500000  0.62500000
   0.37500000  0.62500000  0.75000000
   0.12500000  0.87500000  0.25000000
   0.87500000  0.25000000  0.12500000
   0.62500000  0.75000000  0.37500000
   0.25000000  0.62500000  0.37500000
   0.70050323  0.67343634  0.07968845
   0.82656366  0.52706689  0.40625110
   0.42031155  0.09374890  0.62081478
   0.79949677  0.87918522  0.97293311
   0.79949677  0.42031155  0.82656366
   0.87918522  0.97293311  0.79949677
   0.09374890  0.97293311  0.67343634
   0.97293311  0.79949677  0.87918522
   0.40625110  0.07968845  0.87918522
   0.52706689  0.62081478  0.70050323
   0.62081478  0.70050323  0.52706689
   0.82656366  0.79949677  0.42031155
   0.97293311  0.67343634  0.09374890
   0.87918522  0.40625110  0.07968845
   0.42031155  0.82656366  0.79949677
   0.67343634  0.09374890  0.97293311
   0.07968845  0.87918522  0.40625110
   0.40625110  0.82656366  0.52706689
   0.09374890  0.62081478  0.42031155
   0.59374890  0.92031155  0.12081478
   0.62081478  0.42031155  0.09374890
   0.07968845  0.70050323  0.67343634
   0.52706689  0.40625110  0.82656366
   0.70050323  0.52706689  0.62081478
   0.29949677  0.32656366  0.92031155
   0.17343634  0.47293311  0.59374890
   0.57968845  0.90625110  0.37918522
   0.20050323  0.12081478  0.02706689
   0.20050323  0.57968845  0.17343634
   0.12081478  0.02706689  0.20050323
   0.90625110  0.02706689  0.32656366
   0.02706689  0.20050323  0.12081478
   0.29949677  0.47293311  0.37918522
   0.47293311  0.59374890  0.17343634
   0.92031155  0.29949677  0.32656366
   0.32656366  0.92031155  0.29949677
   0.37918522  0.57968845  0.90625110
   0.90625110  0.37918522  0.57968845
   0.59374890  0.17343634  0.47293311
   0.92031155  0.12081478  0.59374890
   0.32656366  0.90625110  0.02706689
   0.57968845  0.17343634  0.20050323
   0.12081478  0.59374890  0.92031155
   0.02706689  0.32656366  0.90625110
   0.17343634  0.20050323  0.57968845
   0.37918522  0.29949677  0.47293311
   0.47293311  0.37918522  0.29949677
   0.67343634  0.07968845  0.70050323
unknown system                          
           1
     9.970252    0.000000   -3.525016
    -4.985126    8.634491   -3.525016
     0.000000    0.000000   10.575049
   Er   Al   Ga   O 
  12   8  12  48
Direct configuration=     6
   0.25000000  0.87500000  0.62500000
   0.87500000  0.62500000  0.25000000
   0.62500000  0.87500000  0.75000000
   0.87500000  0.75000000  0.62500000
   0.62500000  0.25000000  0.87500000
   0.75000000  0.62500000  0.87500000
   0.75000000  0.12500000  0.37500000
   0.12500000  0.37500000  0.75000000
   0.37500000  0.12500000  0.25000000
   0.12500000  0.25000000  0.37500000
   0.37500000  0.75000000  0.12500000
   0.25000000  0.37500000  0.12500000
   0.50000000  0.50000000  0.50000000
   0.50000000  0.50000000  0.00000000
   0.50000000 -0.00000000  0.50000000
   0.00000000  0.50000000  0.50000000
   0.50000000 -0.00000000  0.00000000
   0.00000000 -0.00000000  0.50000000
   0.00000000  0.50000000  0.00000000
   0.00000000 -0.00000000  0.00000000
   0.25000000  0.12500000  0.87500000
   0.75000000  0.87500000  0.12500000
   0.37500000  0.25000000  0.62500000
   0.62500000  0.37500000  0.25000000
   0.12500000  0.75000000  0.87500000
   0.87500000  0.12500000  0.75000000
   0.75000000  0.37500000  0.62500000
   0.37500000  0.62500000  0.75000000
   0.12500000  0.87500000  0.25000000
   0.87500000  0.25000000  0.12500000
   0.62500000  0.75000000  0.37500000
   0.25000000  0.62500000  0.37500000
   0.70055551  0.67345839  0.07988795
   0.82654161  0.52709712  0.40642856
   0.42011205  0.09357144  0.62066756
   0.79944449  0.87933244  0.97290288
   0.79944449  0.42011205  0.82654161
   0.87933244  0.97290288  0.79944449
   0.09357144  0.97290288  0.67345839
   0.97290288  0.79944449  0.87933244
   0.40642856  0.07988795  0.87933244
   0.52709712  0.62066756  0.70055551
   0.62066756  0.70055551  0.52709712
   0.82654161  0.79944449  0.42011205
   0.97290288  0.67345839  0.09357144
   0.87933244  0.40642856  0.07988795
   0.42011205  0.82654161  0.79944449
   0.67345839  0.09357144  0.97290288
   0.07988795  0.87933244  0.40642856
   0.40642856  0.82654161  0.52709712
   0.09357144  0.62066756  0.42011205
   0.59357144  0.92011205  0.12066756
   0.62066756  0.42011205  0.09357144
   0.07988795  0.70055551  0.67345839
   0.52709712  0.40642856  0.82654161
   0.70055551  0.52709712  0.62066756
   0.29944449  0.32654161  0.92011205
   0.17345839  0.47290288  0.59357144
   0.57988795  0.90642856  0.37933244
   0.20055551  0.12066756  0.02709712
   0.20055551  0.57988795  0.17345839
   0.12066756  0.02709712  0.20055551
   0.90642856  0.02709712  0.32654161
   0.02709712  0.20055551  0.12066756
   0.29944449  0.47290288  0.37933244
   0.47290288  0.59357144  0.17345839
   0.92011205  0.29944449  0.32654161
   0.32654161  0.92011205  0.29944449
   0.37933244  0.57988795  0.90642856
   0.90642856  0.37933244  0.57988795
   0.59357144  0.17345839  0.47290288
   0.92011205  0.12066756  0.59357144
   0.32654161  0.90642856  0.02709712
   0.57988795  0.17345839  0.20055551
   0.12066756  0.59357144  0.92011205
   0.02709712  0.32654161  0.90642856
   0.17345839  0.20055551  0.57988795
   0.37933244  0.29944449  0.47290288
   0.47290288  0.37933244  0.29944449
   0.67345839  0.07988795  0.70055551
unknown system                          
           1
     9.970101    0.000000   -3.524963
    -4.985050    8.634360   -3.524963
     0.000000    0.000000   10.574888
   Er   Al   Ga   O 
  12   8  12  48
Direct configuration=     7
   0.25000000  0.87500000  0.62500000
   0.87500000  0.62500000  0.25000000
   0.62500000  0.87500000  0.75000000
   0.87500000  0.75000000  0.62500000
   0.62500000  0.25000000  0.87500000
   0.75000000  0.62500000  0.87500000
   0.75000000  0.12500000  0.37500000
   0.12500000  0.37500000  0.75000000
   0.37500000  0.12500000  0.25000000
   0.12500000  0.25000000  0.37500000
   0.37500000  0.75000000  0.12500000
   0.25000000  0.37500000  0.12500000
   0.50000000  0.50000000  0.50000000
   0.50000000  0.50000000  0.00000000
   0.50000000 -0.00000000  0.50000000
   0.00000000  0.50000000  0.50000000
   0.50000000 -0.00000000  0.00000000
   0.00000000 -0.00000000  0.50000000
   0.00000000  0.50000000  0.00000000
   0.00000000 -0.00000000  0.00000000
   0.25000000  0.12500000  0.87500000
   0.75000000  0.87500000  0.12500000
   0.37500000  0.25000000  0.62500000
   0.62500000  0.37500000  0.25000000
   0.12500000  0.75000000  0.87500000
   0.87500000  0.12500000  0.75000000
   0.75000000  0.37500000  0.62500000
   0.37500000  0.62500000  0.75000000
   0.12500000  0.87500000  0.25000000
   0.87500000  0.25000000  0.12500000
   0.62500000  0.75000000  0.37500000
   0.25000000  0.62500000  0.37500000
   0.70066193  0.67353953  0.07999719
   0.82646047  0.52712240  0.40645666
   0.42000281  0.09354334  0.62066473
   0.79933807  0.87933527  0.97287760
   0.79933807  0.42000281  0.82646047
   0.87933527  0.97287760  0.79933807
   0.09354334  0.97287760  0.67353953
   0.97287760  0.79933807  0.87933527
   0.40645666  0.07999719  0.87933527
   0.52712240  0.62066473  0.70066193
   0.62066473  0.70066193  0.52712240
   0.82646047  0.79933807  0.42000281
   0.97287760  0.67353953  0.09354334
   0.87933527  0.40645666  0.07999719
   0.42000281  0.82646047  0.79933807
   0.67353953  0.09354334  0.97287760
   0.07999719  0.87933527  0.40645666
   0.40645666  0.82646047  0.52712240
   0.09354334  0.62066473  0.42000281
   0.59354334  0.92000281  0.12066473
   0.62066473  0.42000281  0.09354334
   0.07999719  0.70066193  0.67353953
   0.52712240  0.40645666  0.82646047
   0.70066193  0.52712240  0.62066473
   0.29933807  0.32646047  0.92000281
   0.17353953  0.47287760  0.59354334
   0.57999719  0.90645666  0.37933527
   0.20066193  0.12066473  0.02712240
   0.20066193  0.57999719  0.17353953
   0.12066473  0.02712240  0.20066193
   0.90645666  0.02712240  0.32646047
   0.02712240  0.20066193  0.12066473
   0.29933807  0.47287760  0.37933527
   0.47287760  0.59354334  0.17353953
   0.92000281  0.29933807  0.32646047
   0.32646047  0.92000281  0.29933807
   0.37933527  0.57999719  0.90645666
   0.90645666  0.37933527  0.57999719
   0.59354334  0.17353953  0.47287760
   0.92000281  0.12066473  0.59354334
   0.32646047  0.90645666  0.02712240
   0.57999719  0.17353953  0.20066193
   0.12066473  0.59354334  0.92000281
   0.02712240  0.32646047  0.90645666
   0.17353953  0.20066193  0.57999719
   0.37933527  0.29933807  0.47287760
   0.47287760  0.37933527  0.29933807
   0.67353953  0.07999719  0.70066193
unknown system                          
           1
     9.970078    0.000000   -3.524955
    -4.985039    8.634340   -3.524955
     0.000000    0.000000   10.574864
   Er   Al   Ga   O 
  12   8  12  48
Direct configuration=     8
   0.25000000  0.87500000  0.62500000
   0.87500000  0.62500000  0.25000000
   0.62500000  0.87500000  0.75000000
   0.87500000  0.75000000  0.62500000
   0.62500000  0.25000000  0.87500000
   0.75000000  0.62500000  0.87500000
   0.75000000  0.12500000  0.37500000
   0.12500000  0.37500000  0.75000000
   0.37500000  0.12500000  0.25000000
   0.12500000  0.25000000  0.37500000
   0.37500000  0.75000000  0.12500000
   0.25000000  0.37500000  0.12500000
   0.50000000  0.50000000  0.50000000
   0.50000000  0.50000000  0.00000000
   0.50000000 -0.00000000  0.50000000
   0.00000000  0.50000000  0.50000000
   0.50000000 -0.00000000  0.00000000
   0.00000000 -0.00000000  0.50000000
   0.00000000  0.50000000  0.00000000
   0.00000000 -0.00000000  0.00000000
   0.25000000  0.12500000  0.87500000
   0.75000000  0.87500000  0.12500000
   0.37500000  0.25000000  0.62500000
   0.62500000  0.37500000  0.25000000
   0.12500000  0.75000000  0.87500000
   0.87500000  0.12500000  0.75000000
   0.75000000  0.37500000  0.62500000
   0.37500000  0.62500000  0.75000000
   0.12500000  0.87500000  0.25000000
   0.87500000  0.25000000  0.12500000
   0.62500000  0.75000000  0.37500000
   0.25000000  0.62500000  0.37500000
   0.70064281  0.67352495  0.07997757
   0.82647505  0.52711786  0.40645161
   0.42002243  0.09354839  0.62066524
   0.79935719  0.87933476  0.97288214
   0.79935719  0.42002243  0.82647505
   0.87933476  0.97288214  0.79935719
   0.09354839  0.97288214  0.67352495
   0.97288214  0.79935719  0.87933476
   0.40645161  0.07997757  0.87933476
   0.52711786  0.62066524  0.70064281
   0.62066524  0.70064281  0.52711786
   0.82647505  0.79935719  0.42002243
   0.97288214  0.67352495  0.09354839
   0.87933476  0.40645161  0.07997757
   0.42002243  0.82647505  0.79935719
   0.67352495  0.09354839  0.97288214
   0.07997757  0.87933476  0.40645161
   0.40645161  0.82647505  0.52711786
   0.09354839  0.62066524  0.42002243
   0.59354839  0.92002243  0.12066524
   0.62066524  0.42002243  0.09354839
   0.07997757  0.70064281  0.67352495
   0.52711786  0.40645161  0.82647505
   0.70064281  0.52711786  0.62066524
   0.29935719  0.32647505  0.92002243
   0.17352495  0.47288214  0.59354839
   0.57997757  0.90645161  0.37933476
   0.20064281  0.12066524  0.02711786
   0.20064281  0.57997757  0.17352495
   0.12066524  0.02711786  0.20064281
   0.90645161  0.02711786  0.32647505
   0.02711786  0.20064281  0.12066524
   0.29935719  0.47288214  0.37933476
   0.47288214  0.59354839  0.17352495
   0.92002243  0.29935719  0.32647505
   0.32647505  0.92002243  0.29935719
   0.37933476  0.57997757  0.90645161
   0.90645161  0.37933476  0.57997757
   0.59354839  0.17352495  0.47288214
   0.92002243  0.12066524  0.59354839
   0.32647505  0.90645161  0.02711786
   0.57997757  0.17352495  0.20064281
   0.12066524  0.59354839  0.92002243
   0.02711786  0.32647505  0.90645161
   0.17352495  0.20064281  0.57997757
   0.37933476  0.29935719  0.47288214
   0.47288214  0.37933476  0.29935719
   0.67352495  0.07997757  0.70064281
unknown system                          
           1
     9.970017    0.000000   -3.524933
    -4.985008    8.634288   -3.524933
     0.000000    0.000000   10.574800
   Er   Al   Ga   O 
  12   8  12  48
Direct configuration=     9
   0.25000000  0.87500000  0.62500000
   0.87500000  0.62500000  0.25000000
   0.62500000  0.87500000  0.75000000
   0.87500000  0.75000000  0.62500000
   0.62500000  0.25000000  0.87500000
   0.75000000  0.62500000  0.87500000
   0.75000000  0.12500000  0.37500000
   0.12500000  0.37500000  0.75000000
   0.37500000  0.12500000  0.25000000
   0.12500000  0.25000000  0.37500000
   0.37500000  0.75000000  0.12500000
   0.25000000  0.37500000  0.12500000
   0.50000000  0.50000000  0.50000000
   0.50000000  0.50000000  0.00000000
   0.50000000 -0.00000000  0.50000000
   0.00000000  0.50000000  0.50000000
   0.50000000 -0.00000000  0.00000000
   0.00000000 -0.00000000  0.50000000
   0.00000000  0.50000000  0.00000000
   0.00000000 -0.00000000  0.00000000
   0.25000000  0.12500000  0.87500000
   0.75000000  0.87500000  0.12500000
   0.37500000  0.25000000  0.62500000
   0.62500000  0.37500000  0.25000000
   0.12500000  0.75000000  0.87500000
   0.87500000  0.12500000  0.75000000
   0.75000000  0.37500000  0.62500000
   0.37500000  0.62500000  0.75000000
   0.12500000  0.87500000  0.25000000
   0.87500000  0.25000000  0.12500000
   0.62500000  0.75000000  0.37500000
   0.25000000  0.62500000  0.37500000
   0.70063997  0.67352279  0.07997466
   0.82647721  0.52711718  0.40645086
   0.42002534  0.09354914  0.62066532
   0.79936003  0.87933468  0.97288282
   0.79936003  0.42002534  0.82647721
   0.87933468  0.97288282  0.79936003
   0.09354914  0.97288282  0.67352279
   0.97288282  0.79936003  0.87933468
   0.40645086  0.07997466  0.87933468
   0.52711718  0.62066532  0.70063997
   0.62066532  0.70063997  0.52711718
   0.82647721  0.79936003  0.42002534
   0.97288282  0.67352279  0.09354914
   0.87933468  0.40645086  0.07997466
   0.42002534  0.82647721  0.79936003
   0.67352279  0.09354914  0.97288282
   0.07997466  0.87933468  0.40645086
   0.40645086  0.82647721  0.52711718
   0.09354914  0.62066532  0.42002534
   0.59354914  0.92002534  0.12066532
   0.62066532  0.42002534  0.09354914
   0.07997466  0.70063997  0.67352279
   0.52711718  0.40645086  0.82647721
   0.70063997  0.52711718  0.62066532
   0.29936003  0.32647721  0.92002534
   0.17352279  0.47288282  0.59354914
   0.57997466  0.90645086  0.37933468
   0.20063997  0.12066532  0.02711718
   0.20063997  0.57997466  0.17352279
   0.12066532  0.02711718  0.20063997
   0.90645086  0.02711718  0.32647721
   0.02711718  0.20063997  0.12066532
   0.29936003  0.47288282  0.37933468
   0.47288282  0.59354914  0.17352279
   0.92002534  0.29936003  0.32647721
   0.32647721  0.92002534  0.29936003
   0.37933468  0.57997466  0.90645086
   0.90645086  0.37933468  0.57997466
   0.59354914  0.17352279  0.47288282
   0.92002534  0.12066532  0.59354914
   0.32647721  0.90645086  0.02711718
   0.57997466  0.17352279  0.20063997
   0.12066532  0.59354914  0.92002534
   0.02711718  0.32647721  0.90645086
   0.17352279  0.20063997  0.57997466
   0.37933468  0.29936003  0.47288282
   0.47288282  0.37933468  0.29936003
   0.67352279  0.07997466  0.70063997
unknown system                          
           1
     9.970066    0.000000   -3.524951
    -4.985033    8.634330   -3.524951
     0.000000    0.000000   10.574852
   Er   Al   Ga   O 
  12   8  12  48
Direct configuration=    10
   0.25000000  0.87500000  0.62500000
   0.87500000  0.62500000  0.25000000
   0.62500000  0.87500000  0.75000000
   0.87500000  0.75000000  0.62500000
   0.62500000  0.25000000  0.87500000
   0.75000000  0.62500000  0.87500000
   0.75000000  0.12500000  0.37500000